ITEM: TIMESTEP
0
ITEM: NUMBER OF ATOMS
1026
ITEM: BOX BOUNDS pp pp pp
0.0000000000000000e+00 2.2857118000000000e+01
0.0000000000000000e+00 2.2857118000000000e+01
0.0000000000000000e+00 2.2857118000000000e+01
ITEM: ATOMS id type xs ys zs fx fy fz
1 1 0.22544 0.219429 0.132493 -0.27241 -0.128234 0.0708579
2 1 0.285619 0.294098 0.150006 0.0472829 -0.329736 -0.0345603
3 1 0.219486 0.142477 0.211244 0.0146036 0.153363 0.0797087
4 1 0.150003 0.214379 0.205903 -0.0345593 -0.0472769 0.329734
5 1 0.357522 0.288757 0.219489 -0.153365 -0.0797069 0.0146021
6 1 0.280569 0.367509 0.225443 0.128243 -0.0708581 -0.272419
7 1 0.285502 0.141955 0.283832 -0.174211 0.137162 -0.0769347
8 1 0.358044 0.216169 0.285505 -0.137162 0.0769361 -0.174212
9 1 0.13249 0.274558 0.280572 0.0708556 0.272415 0.128241
10 1 0.2059 0.349995 0.285622 0.329737 0.0345622 0.0472782
11 1 0.28383 0.214496 0.358046 -0.0769355 0.174211 -0.137162
12 1 0.211241 0.280512 0.357525 0.0797066 -0.0146052 -0.153365
13 1 0.999848 2.03493e-06 2.82039e-05 0.00418376 0.000684268 -0.00169224
14 1 0.0631118 0.063303 0.0632765 -0.0532989 -0.0600864 -0.0786541
15 1 0.999347 0.999228 0.124608 0.0658446 0.0689736 -0.009402
16 1 0.0626681 0.0625065 0.185565 -0.0943686 -0.108324 -0.0320956
17 1 9.76111e-06 0.999904 0.249806 0.00198077 0.0150776 -0.0057574
18 1 0.061676 0.0618556 0.313617 0.0543965 -0.00156537 -0.0162085
19 1 0.999815 0.999713 0.375303 -0.0257163 -0.0147388 0.00907693
20 1 0.0617904 0.0618753 0.438297 0.0929877 0.0404527 -0.0771637
21 1 0.999681 0.999576 0.500379 0.00848485 0.000532556 -0.00496816
22 1 0.0626164 0.062452 0.562606 -0.00300954 -0.00169128 0.00206736
23 1 0.999935 0.999848 0.625078 -0.00119584 -0.00215514 0.00282449
24 1 0.0624058 0.0623715 0.687553 -0.000384659 -0.000766868 0.00312597
25 1 0.999793 0.999794 0.74986 -0.00127697 -0.00174478 0.000571699
26 1 0.0621852 0.0622055 0.812198 -0.00248544 -0.00287423 -0.00465083
27 1 0.999439 0.999493 0.87444 0.00217207 0.000772067 -0.00163135
28 1 0.0614275 0.0614358 0.936429 0.0053583 0.00398939 -0.0111598
29 1 0.998764 0.124129 0.998601 0.0765543 -0.000355604 0.0813961
30 1 0.0613408 0.18521 0.0608847 0.00844429 0.0224779 -0.0568967
31 1 0.999598 0.124653 0.124516 0.0245005 -0.0239348 -0.0247279
32 1 0.056127 0.187813 0.187594 -0.0975475 -0.194795 -0.125067
33 1 0.998896 0.123733 0.250507 0.0434218 0.0553497 0.0254493
34 1 0.0640534 0.18893 0.310165 0.0159511 0.0502195 -0.100687
35 1 0.999874 0.124993 0.374778 0.0140026 0.0422412 -0.0101674
36 1 0.0605481 0.185436 0.439314 0.0111022 -0.00244372 0.0154715
37 1 0.999224 0.124158 0.50091 -0.0114483 -0.00217113 0.00626101
38 1 0.061528 0.186817 0.563306 0.0466993 -0.011019 -0.0266993
39 1 0.999588 0.124602 0.625451 0.0050486 -0.00241637 -0.00497652
40 1 0.0623605 0.187403 0.687613 0.000813987 -0.000998531 -0.00206572
41 1 0.999812 0.12491 0.749981 -0.000820118 -0.00190305 -0.00142806
42 1 0.0623464 0.187504 0.812399 -0.00263145 0.000340629 -0.0052646
43 1 0.99947 0.124766 0.87446 -0.000502548 -0.000346964 -0.000880768
44 1 0.0615635 0.18743 0.936706 0.0226584 -0.0134873 -0.0165751
45 1 0.999301 0.24998 0.998989 0.0253821 -0.00693657 0.047373
46 1 0.0608838 0.314292 0.0606288 0.085977 -0.0373565 0.00333673
47 1 0.999452 0.250491 0.123164 -0.00148545 0.0340884 0.0830131
48 1 0.0660249 0.307654 0.189156 -0.189289 0.129932 -0.0922462
49 1 0.998431 0.250722 0.251299 0.122343 -0.00805625 -0.0518938
50 1 0.0504637 0.315359 0.316276 0.0195722 0.10804 0.0287226
51 1 0.997519 0.248689 0.377445 0.0556339 0.0131023 -0.0574605
52 1 0.0608192 0.314431 0.439179 -0.060683 -0.00551071 0.0338277
53 1 0.999024 0.24993 0.501024 0.0259029 0.000211436 -0.0330819
54 1 0.0617178 0.31253 0.563054 0.0054823 0.00944184 0.0109973
55 1 0.999574 0.249942 0.625415 -0.00209418 0.00258287 0.00148281
56 1 0.0623839 0.312537 0.687554 -0.00127913 -0.000519041 0.000704004
57 1 0.999838 0.250036 0.749978 -0.00035047 -0.00017361 -8.45578e-05
58 1 0.062343 0.312667 0.812366 0.0017809 0.000977762 0.000409329
59 1 0.999512 0.250113 0.874497 -0.00257159 -0.00221586 -0.00167802
60 1 0.0613876 0.313304 0.936529 0.057535 0.0102318 0.0322171
61 1 0.999149 0.375761 0.999133 -0.0102954 -0.00131938 -0.00586991
62 1 0.0612021 0.438796 0.0612049 0.0990033 -0.0990038 0.099003
63 1 0.000213122 0.374332 0.12526 -0.00881472 0.0449188 0.0112618
64 1 0.060626 0.439114 0.185709 0.0033367 -0.0859777 0.0373572
65 1 0.997855 0.376335 0.248474 0.055956 0.0116078 0.0527479
66 1 0.0608818 0.438658 0.314791 -0.0568959 -0.0084462 -0.0224785
67 1 0.997313 0.377041 0.377286 -0.00243561 0.00783992 0.0075673
68 1 0.0632737 0.436886 0.436698 -0.0786529 0.0532975 0.060085
69 1 0.998715 0.376002 0.501279 0.0600806 0.00562423 -0.0527135
70 1 0.0617869 0.438286 0.563188 0.00411526 -0.005022 0.0133103
71 1 0.999601 0.375264 0.625386 -0.000704363 -0.000172443 0.00146161
72 1 0.0623443 0.437703 0.687656 -1.95359e-05 -0.000126985 -2.42619e-05
73 1 0.999824 0.37515 0.749951 3.48139e-05 0.00121843 0.000992277
74 1 0.0624196 0.437633 0.812392 0.000361653 0.00010142 -0.00235611
75 1 0.99946 0.375464 0.874448 0.0054512 0.000556811 0.00672138
76 1 0.0623513 0.437664 0.937212 0.00264637 -0.00358395 0.00610185
77 1 0.999227 0.500771 0.99923 0.0123928 -0.0123929 0.0123928
78 1 0.0623344 0.562789 0.062354 0.00358405 -0.00610202 0.00264646
79 1 0.99913 0.50085 0.12424 -0.00586953 0.0102951 0.00131955
80 1 0.0616676 0.563056 0.187134 0.0205849 -0.0146531 -0.00774948
81 1 0.998986 0.500697 0.250021 0.0473734 -0.0253823 0.0069366
82 1 0.0619972 0.562636 0.31272 -0.021402 0.0352755 0.00245652
83 1 0.998598 0.501235 0.375872 0.0813956 -0.0765536 0.000355636
84 1 0.0623602 0.562589 0.437696 -0.0107206 0.0325041 0.0072269
85 1 2.53991e-05 0.500151 0.499999 -0.00169208 -0.00418381 -0.000684387
86 1 0.0622615 0.562839 0.562813 -0.00685747 -0.00125382 -0.000412974
87 1 0.99968 0.500436 0.625375 0.00238246 -0.0026633 0.000707915
88 1 0.0623993 0.562714 0.687604 -7.43319e-05 -0.000334368 0.000400054
89 1 0.999848 0.500202 0.75 0.000117685 7.08071e-05 -0.000472095
90 1 0.0623095 0.56274 0.812279 -0.00038712 -0.00147082 0.00191423
91 1 0.999754 0.500244 0.874719 0.00102042 -0.00130564 -3.98846e-05
92 1 0.0620682 0.563004 0.936968 0.00452568 -0.0038185 0.00253293
93 1 0.999754 0.625282 0.999757 0.00130573 3.98517e-05 0.0010205
94 1 0.0623656 0.687609 0.0624224 -0.000101372 0.00235604 0.000361723
95 1 0.999621 0.625386 0.124727 0.0026993 -0.00256338 -0.00265974
96 1 0.0623866 0.68758 0.187469 0.00115755 -0.00217389 -0.000123402
97 1 0.999704 0.625246 0.250041 -0.000495657 0.00168903 0.00033119
98 1 0.0624721 0.6875 0.312518 -0.000565411 0.000411007 0.000271359
99 1 0.999783 0.625229 0.37518 -0.000512047 -0.00168722 -0.00031734
100 1 0.0625396 0.687518 0.437475 -0.000969424 0.00119674 0.000412298
101 1 0.999956 0.625167 0.500091 -0.00141513 0.00376051 0.00106636
102 1 0.0624503 0.687549 0.56255 -0.00112493 0.000313454 -0.000137312
103 1 0.999851 0.625189 0.625108 -0.00142507 -0.000780201 -0.000114777
104 1 0.0624055 0.687543 0.687467 0.000496113 9.73944e-05 0.000507978
105 1 0.999829 0.625183 0.749921 0.000451443 -0.000764707 0.000798622
106 1 0.0623142 0.687635 0.812286 0.000695201 -0.0011212 0.000589653
107 1 0.999712 0.625292 0.874679 0.00222137 -0.00241257 0.00177148
108 1 0.0621998 0.687765 0.937172 0.000523038 -0.00290533 0.00192813
109 1 0.999796 0.750001 0.999851 -7.07321e-05 0.000472016 0.000117714
110 1 0.0622957 0.812345 0.0623471 0.000127026 2.42448e-05 -1.95167e-05
111 1 0.999875 0.750038 0.124967 0.000704958 -0.000742971 -0.000807791
112 1 0.0624834 0.812475 0.187519 -0.000846867 -4.3804e-05 -0.000415972
113 1 0.999954 0.750008 0.25003 0.000404991 0.000512578 -0.000551058
114 1 0.0625171 0.812442 0.312547 0.00219407 0.00334428 -0.000494974
115 1 0.999986 0.749979 0.37504 0.00083965 0.00113942 0.000750357
116 1 0.0626121 0.812491 0.437391 -0.00114173 -0.00465374 0.000999921
117 1 4.54628e-05 0.750009 0.499955 -0.000976014 -0.00105505 0.000917519
118 1 0.0623752 0.812321 0.562562 0.000218364 0.00224475 -0.00182799
119 1 0.9999 0.749961 0.624994 0.00013838 0.000278047 -0.000295021
120 1 0.0623601 0.812359 0.687446 0.000383291 -0.000303109 -0.000222838
121 1 0.999819 0.749992 0.749858 0.000771148 -0.000587418 7.99771e-05
122 1 0.0622771 0.81236 0.812285 0.00101387 -0.00103928 -0.000658586
123 1 0.999728 0.750038 0.874746 0.000783174 -0.00122813 0.000787728
124 1 0.0622284 0.812335 0.937227 -8.91969e-05 -0.00143656 -0.000568251
125 1 0.999562 0.874626 0.999682 0.00266316 -0.00070818 0.00238231
126 1 0.061712 0.936813 0.0617897 0.00502173 -0.0133107 0.00411501
127 1 0.99972 0.874709 0.124921 0.00089284 0.000417665 0.000190538
128 1 0.0620434 0.937139 0.18749 0.012687 -0.00523009 -0.00527964
129 1 0.999805 0.874779 0.250047 -0.00102753 -0.00331953 -0.0042104
130 1 0.0618223 0.936883 0.312979 0.060292 0.0601804 -0.00287097
131 1 0.999784 0.874712 0.375234 0.00669206 0.00892732 0.000247244
132 1 0.0628098 0.937658 0.437191 0.000774589 0.00105143 0.000622923
133 1 8.17126e-05 0.874967 0.499906 -0.00126485 -0.00191439 0.00133065
134 1 0.062337 0.937236 0.562649 -0.000347739 -0.00215724 0.00343111
135 1 0.999892 0.874836 0.625004 -7.2285e-05 -0.00115602 0.00121553
136 1 0.0622738 0.937212 0.687576 0.000818604 0.000455262 -0.00215873
137 1 0.999757 0.874772 0.749857 0.000676548 -0.000491559 -0.000704206
138 1 0.0621872 0.937122 0.812186 0.000249008 -0.00123832 -0.00165342
139 1 0.999581 0.874685 0.874659 4.65161e-05 0.00165542 0.00261545
140 1 0.0618244 0.936843 0.936866 -0.00234829 0.00639899 0.00834608
141 1 0.123997 0.998722 0.998718 -0.00562424 0.0527142 0.0600814
142 1 0.185567 0.060822 0.060822 0.00551029 -0.0338285 -0.0606833
143 1 0.123512 0.998209 0.123329 0.0204836 0.033167 0.00793916
144 1 0.185554 0.0529524 0.184954 -0.0740944 0.0582703 -0.0626923
145 1 0.123908 0.999272 0.251056 0.0360954 -0.0157798 -0.00445766
146 1 0.192099 0.0668518 0.307767 -0.181502 -0.232589 0.146348
147 1 0.126137 0.00102352 0.373785 -0.0453163 -0.0604838 0.0581509
148 1 0.186303 0.0612077 0.438671 0.000792616 0.000928332 -0.0469003
149 1 0.124592 0.999539 0.500363 -0.00604363 -0.0178791 0.0192962
150 1 0.186971 0.0614293 0.563318 0.000458379 0.0454646 -0.036498
151 1 0.124675 0.999529 0.625389 0.000715137 0.00484795 -0.00660796
152 1 0.187393 0.0622727 0.687625 0.000588082 0.00124785 -0.00271241
153 1 0.124846 0.999742 0.749945 -0.000654127 -0.00134179 -0.00152225
154 1 0.187395 0.0622165 0.812337 0.00148325 -0.00428852 -0.00563732
155 1 0.124609 0.999338 0.874388 0.000785141 -0.000924055 -0.00233935
156 1 0.187255 0.0611552 0.93645 -0.00730583 0.0246142 -0.00652207
157 1 0.122957 0.122715 0.997316 -0.00783957 -0.00756698 -0.00243472
158 1 0.18464 0.183725 0.0504665 -0.108042 -0.0287226 0.019575
159 1 0.131115 0.129763 0.128285 -0.184925 -0.102921 -0.125312
160 1 0.120135 0.120232 0.24952 0.125191 0.0859101 -0.0535694
161 1 0.185277 0.183359 0.31199 0.138321 0.0957239 -0.0451522
162 1 0.124779 0.12479 0.375799 -0.0282102 -0.0973848 -0.0305035
163 1 0.190913 0.19023 0.433297 -0.127634 -0.0594411 0.248925
164 1 0.125833 0.125503 0.499641 -0.0283442 -0.00696992 0.0235804
165 1 0.187448 0.187248 0.562511 -0.00958144 -0.0104109 1.30771e-05
166 1 0.124965 0.124884 0.625028 -0.0053454 -0.00499624 0.0243662
167 1 0.187472 0.187416 0.687465 -0.00180275 -0.00159944 -3.76885e-05
168 1 0.12489 0.124882 0.749966 -0.00101136 -0.000732281 -0.00220764
169 1 0.187361 0.187358 0.812371 -0.000616953 2.42204e-05 0.00777803
170 1 0.124465 0.124458 0.874568 -0.0172586 -0.017113 -0.0325283
171 1 0.186823 0.18667 0.935481 -0.0068993 -0.0170115 0.133587
172 1 0.123664 0.251528 0.997858 -0.0116076 -0.0527479 0.0559547
173 1 0.192344 0.310845 0.0660278 -0.129931 0.0922473 -0.189291
174 1 0.120826 0.250122 0.114822 0.120836 0.0376471 0.0962316
175 1 0.185038 0.314961 0.18504 0.00309659 -0.00309824 0.00309822
176 1 0.116411 0.248638 0.381802 0.0418973 0.0163844 -0.0560231
177 1 0.184951 0.314445 0.447049 -0.062692 0.0740934 -0.0582712
178 1 0.1234 0.248523 0.501223 0.0307326 0.0164189 -0.011786
179 1 0.187078 0.312729 0.563753 -0.00975253 0.000888739 -0.133088
180 1 0.124743 0.249816 0.624918 -0.0198327 -0.0125959 0.0535609
181 1 0.187421 0.312495 0.68754 0.000414658 -0.00107458 -0.00852881
182 1 0.124933 0.250007 0.750001 -0.00104146 0.000490197 -0.00144707
183 1 0.187489 0.31251 0.812603 0.000241842 0.00312305 -0.00459608
184 1 0.124751 0.25024 0.875002 -0.0231202 0.0161182 -0.051984
185 1 0.187686 0.312794 0.937762 0.00306843 0.0197627 -0.0404076
186 1 0.125667 0.374741 0.000215931 -0.0449191 -0.011261 -0.00881507
187 1 0.185706 0.439372 0.0608866 0.0373565 -0.00333731 0.0859766
188 1 0.123926 0.376072 0.123929 0.0350328 -0.0350339 0.0350345
189 1 0.189154 0.433973 0.192347 -0.0922446 0.189288 -0.12993
190 1 0.11482 0.379172 0.249879 0.0962311 -0.120837 -0.0376467
191 1 0.187591 0.443871 0.312188 -0.125066 0.0975469 0.194794
192 1 0.128282 0.368883 0.370238 -0.125311 0.184919 0.102916
193 1 0.185562 0.43733 0.437495 -0.0320961 0.0943674 0.108323
194 1 0.123326 0.376486 0.501793 0.00793963 -0.0204841 -0.0331664
195 1 0.187487 0.437955 0.562862 -0.00527968 -0.0126876 0.00522919
196 1 0.124677 0.375267 0.625144 -0.0138309 0.0130012 0.0323771
197 1 0.187516 0.437515 0.687527 -0.000415968 0.000846908 4.37778e-05
198 1 0.12496 0.37506 0.750013 0.000509095 -0.000554608 -0.000807315
199 1 0.187466 0.437612 0.812421 -0.000123374 -0.00115755 0.0021739
200 1 0.125018 0.37513 0.875026 -0.00592105 0.00210395 -0.022881
201 1 0.187131 0.438331 0.936945 -0.00774939 -0.0205855 0.0146539
202 1 0.124238 0.500868 0.999152 0.00131947 0.0058698 -0.0102953
203 1 0.186694 0.563472 0.0613904 -0.0102318 -0.0322167 0.0575345
204 1 0.125257 0.499785 0.125669 0.0112623 0.00881417 -0.0449179
205 1 0.187204 0.562239 0.187689 -0.0197626 0.0404076 0.00306863
206 1 0.123161 0.500547 0.24951 0.0830129 0.00148526 -0.0340887
207 1 0.187431 0.562889 0.312365 -0.015739 -0.0222374 0.00716519
208 1 0.124513 0.500401 0.375348 -0.0247283 -0.0244989 0.0239353
209 1 0.187268 0.562505 0.437751 -0.00243999 0.0387823 0.0161768
210 1 0.124605 0.500651 0.500773 -0.009402 -0.0658437 -0.0689727
211 1 0.187537 0.562681 0.562707 0.00194565 0.00323969 0.00333419
212 1 0.124918 0.500278 0.625292 0.000190544 -0.000892928 -0.000417747
213 1 0.187508 0.562625 0.687592 -0.00023646 -0.000126317 -0.000530055
214 1 0.124964 0.500123 0.749964 -0.000807826 -0.000704903 0.000742943
215 1 0.187456 0.562673 0.812335 -0.000282125 0.000111405 -0.000471869
216 1 0.124724 0.500378 0.874615 -0.0026597 -0.00269935 0.00256343
217 1 0.187277 0.563032 0.936966 -0.000327531 -0.00159934 0.00118267
218 1 0.124534 0.625553 0.999463 -0.00055672 -0.00672136 0.00545112
219 1 0.187331 0.687635 0.0623458 -0.00097776 -0.000409363 0.00178092
220 1 0.124868 0.624975 0.12502 -0.00210383 0.0228806 -0.00592093
221 1 0.187488 0.687398 0.187492 -0.00312301 0.00459608 0.000241893
222 1 0.124768 0.62489 0.24997 -0.00958865 0.0265121 -0.00775276
223 1 0.187544 0.687438 0.31241 -0.000514127 -0.000320037 0.00021706
224 1 0.124958 0.62491 0.374988 -0.0106933 0.0235775 0.0100034
225 1 0.187494 0.687457 0.437471 -0.0011699 0.00122427 0.000438379
226 1 0.124927 0.625119 0.50012 3.32511e-05 -0.00122517 -0.000699457
227 1 0.187483 0.687498 0.562551 0.000184383 0.000162305 7.51302e-05
228 1 0.124971 0.625096 0.62508 -0.000315428 0.00145741 0.00148969
229 1 0.187473 0.687497 0.687487 -0.000180836 0.000189185 2.02296e-05
230 1 0.12493 0.625126 0.749932 -0.000102433 -9.14083e-06 -8.32527e-05
231 1 0.187423 0.687609 0.812305 0.000156788 -0.000888958 0.000176455
232 1 0.124796 0.625309 0.874655 0.00091398 -0.00236248 0.00150979
233 1 0.187354 0.687738 0.937191 0.000672996 0.000296783 -0.000668937
234 1 0.124848 0.75005 0.999827 -0.00121842 -0.000992255 3.47844e-05
235 1 0.187461 0.812447 0.0623867 0.000519065 -0.00070402 -0.0012791
236 1 0.124938 0.749988 0.124963 0.000554611 0.000807317 0.000509148
237 1 0.187503 0.812461 0.187424 0.00107451 0.00852885 0.00041467
238 1 0.125027 0.749999 0.249987 -3.13091e-05 -0.000542048 7.57441e-05
239 1 0.187629 0.812574 0.312423 -0.00182007 0.000728994 0.000679984
240 1 0.125092 0.749981 0.374918 -0.000850688 0.000209247 -0.000102476
241 1 0.187482 0.812401 0.437521 -0.000267191 0.00207717 -0.0025084
242 1 0.124986 0.749929 0.500001 -0.00108552 0.000784264 -0.00108936
243 1 0.187429 0.812295 0.562609 0.00127055 -0.000981264 0.000701304
244 1 0.124933 0.749918 0.625014 0.000487745 -0.000327749 0.000592004
245 1 0.187418 0.812321 0.687502 0.000428598 -0.000309569 -0.000712091
246 1 0.124886 0.74996 0.74988 0.000441933 -0.000418545 -0.000309345
247 1 0.187409 0.81235 0.812315 0.000478433 -0.00106785 -0.00115442
248 1 0.124829 0.750025 0.874751 0.000471213 -0.000452275 -0.000631046
249 1 0.187393 0.812327 0.937234 0.000392808 -0.000244629 -0.00109335
250 1 0.124734 0.874615 0.999603 0.00017245 -0.00146172 -0.000704426
251 1 0.187468 0.936947 0.0617206 -0.00944195 -0.0109979 0.00548211
252 1 0.124731 0.874857 0.12468 -0.0130011 -0.0323771 -0.0138309
253 1 0.187269 0.936248 0.187081 -0.000888804 0.133087 -0.00975245
254 1 0.124937 0.87517 0.250092 -0.0176778 -0.0536317 0.0119292
255 1 0.187776 0.93777 0.3123 -0.0153083 -0.00757624 0.0064964
256 1 0.125202 0.875188 0.374853 -0.00649651 -0.0272577 0.00593924
257 1 0.187033 0.936828 0.438309 -0.00692304 0.0446331 -0.0605543
258 1 0.124747 0.874633 0.500258 -0.000868725 0.00902661 -0.00829923
259 1 0.187378 0.937136 0.562776 -0.00155696 -0.00240009 0.00231923
260 1 0.124865 0.874759 0.625096 0.00024721 -0.000489267 -0.000188333
261 1 0.187393 0.937192 0.687622 0.00142353 -0.00121496 -1.90242e-05
262 1 0.124847 0.874753 0.749896 0.000799865 -0.0015396 -0.000570081
263 1 0.18741 0.937139 0.812239 2.92598e-05 -0.00213528 -0.00150127
264 1 0.124764 0.874669 0.874664 0.00141676 -0.00147529 -0.00155311
265 1 0.187338 0.936871 0.936909 0.00309577 -0.00446056 -0.00578081
266 1 0.250069 0.998978 0.999027 -0.000211476 0.0330822 0.0259033
267 1 0.314562 0.0606875 0.0605509 0.00244304 -0.0154702 0.0111037
268 1 0.251476 0.998778 0.123402 -0.0164187 0.011786 0.0307325
269 1 0.309768 0.0667038 0.190916 0.0594417 -0.248927 -0.127634
270 1 0.250612 0.998995 0.249704 -0.00651802 -0.223102 -0.0060863
271 1 0.315389 0.0526306 0.314826 0.0545257 0.0379822 0.0745925
272 1 0.249082 0.998746 0.376255 0.0104346 0.0169323 -0.0232039
273 1 0.314922 0.0614308 0.438415 0.000112833 -0.0782822 0.0795051
274 1 0.250207 0.999393 0.500503 0.000707406 0.018868 -0.0143145
275 1 0.312678 0.0615259 0.563146 0.0039784 0.0146595 0.0113335
276 1 0.249975 0.999494 0.625404 0.00275807 -0.000177683 0.0006836
277 1 0.31256 0.0622742 0.68761 -0.000427017 -0.00100163 0.000980729
278 1 0.249995 0.999755 0.749973 0.00120446 -0.00114804 -0.00120495
279 1 0.312622 0.0622394 0.812342 0.0037137 -0.00143694 -0.00440998
280 1 0.250115 0.999387 0.874465 -0.00120918 -0.00191784 -0.00235294
281 1 0.313343 0.0613283 0.936564 0.0083915 0.0170024 -0.00741868
282 1 0.25131 0.122556 0.997522 -0.0131031 0.057461 0.0556338
283 1 0.311068 0.189836 0.0640562 -0.0502164 0.100687 0.0159494
284 1 0.25136 0.118199 0.116414 -0.0163853 0.0560232 0.0418983
285 1 0.31664 0.188011 0.18528 -0.095723 0.0451523 0.138321
286 1 0.250222 0.117978 0.380753 -0.0238036 0.0448288 -0.0234148
287 1 0.314824 0.184609 0.447371 0.0745915 -0.0545248 -0.0379824
288 1 0.248937 0.123183 0.501278 0.00984468 0.0413483 -0.00697464
289 1 0.312882 0.186885 0.563955 -0.000151874 -0.00679086 -0.12974
290 1 0.249908 0.124591 0.624997 -0.0134874 -0.0170967 0.0516948
291 1 0.312535 0.187341 0.687593 -0.000754707 0.0012029 -0.00970924
292 1 0.249975 0.124847 0.749995 0.00101782 -0.00132895 -0.00139512
293 1 0.312451 0.187415 0.812553 0.00440986 -0.000245521 -0.00419258
294 1 0.250091 0.124492 0.874807 0.0227737 -0.0193851 -0.0402973
295 1 0.312738 0.187228 0.937301 0.0108154 -0.00268782 -0.0347718
296 1 0.249276 0.248702 0.998433 0.00805551 0.0518935 0.122344
297 1 0.312185 0.312407 0.0561298 0.194796 0.125068 -0.0975471
298 1 0.250031 0.249968 0.250033 -0.0510386 0.0510409 -0.0510421
299 1 0.311987 0.314721 0.316643 -0.0451517 -0.138321 -0.095722
300 1 0.307765 0.307899 0.433149 0.146347 0.181503 0.232587
301 1 0.249701 0.249386 0.501006 -0.00608639 0.00651801 0.223104
302 1 0.312298 0.312222 0.562231 0.0064962 0.0153084 0.0075765
303 1 0.249943 0.249841 0.624857 -0.00126199 0.00153124 0.0719508
304 1 0.31242 0.31237 0.687427 0.000679985 0.00182008 -0.000728997
305 1 0.24994 0.249925 0.750019 0.00052979 0.000720091 -0.00149501
306 1 0.312407 0.312455 0.812563 0.000217093 0.000514148 0.000320009
307 1 0.249875 0.249867 0.875131 0.0118058 0.0114609 -0.0629658
308 1 0.312362 0.312568 0.937112 0.00716527 0.0157391 0.0222374
309 1 0.249507 0.376837 0.999455 -0.0340888 -0.0830133 -0.00148548
310 1 0.314788 0.439116 0.0613436 -0.022478 0.0568963 0.0084458
311 1 0.249876 0.385179 0.120829 -0.0376465 -0.0962293 0.120836
312 1 0.316274 0.449535 0.184643 0.0287232 -0.019575 -0.108041
313 1 0.310162 0.435945 0.311071 -0.100688 -0.0159514 -0.0502197
314 1 0.249517 0.379864 0.379769 -0.0535714 -0.12519 -0.0859082
315 1 0.313614 0.438322 0.438146 -0.0162084 -0.0543962 0.0015656
316 1 0.251053 0.37609 0.500729 -0.004458 -0.0360957 0.0157802
317 1 0.312976 0.438176 0.563118 -0.00287103 -0.0602921 -0.0601805
318 1 0.25009 0.375062 0.624832 0.0119292 0.0176777 0.0536318
319 1 0.312545 0.437481 0.687559 -0.000494957 -0.0021941 -0.0033443
320 1 0.249985 0.374971 0.750002 7.57306e-05 3.13266e-05 0.000542091
321 1 0.312515 0.437526 0.812501 0.000271387 0.000565447 -0.000410971
322 1 0.249967 0.37523 0.875111 -0.00775271 0.00958879 -0.0265125
323 1 0.312717 0.438001 0.937365 0.00245643 0.021402 -0.0352755
324 1 0.250018 0.501012 0.999304 0.00693648 -0.0473728 0.0253818
325 1 0.312568 0.563295 0.0615663 0.0134872 0.0165753 0.0226582
326 1 0.248471 0.502143 0.123667 0.0527476 -0.0559553 -0.0116077
327 1 0.313328 0.56452 0.186826 0.0170118 -0.133586 -0.00689961
328 1 0.251296 0.501568 0.249279 -0.0518927 -0.122344 0.00805511
329 1 0.312771 0.5627 0.312741 0.00268779 0.034772 0.0108156
330 1 0.250505 0.501102 0.376268 0.0254496 -0.0434222 -0.0553501
331 1 0.312872 0.562971 0.438066 -0.00282213 -0.00513727 -0.00647396
332 1 0.249803 0.499989 0.500098 -0.0057575 -0.00198061 -0.0150775
333 1 0.312528 0.562563 0.56259 0.00101346 0.00314467 0.00267655
334 1 0.250044 0.500193 0.625222 -0.00421046 0.00102747 0.00331944
335 1 0.312562 0.56257 0.687583 -0.00160485 0.000686607 0.00082257
336 1 0.250027 0.500045 0.749993 -0.000551013 -0.000404979 -0.000512601
337 1 0.312565 0.562639 0.812357 -0.00116374 0.000176714 5.1358e-06
338 1 0.250038 0.500294 0.874755 0.000331293 0.000495669 -0.00168914
339 1 0.31258 0.56308 0.936929 -0.0039618 0.00238837 -0.000630614
340 1 0.249885 0.625504 0.999515 0.00221575 0.00167804 -0.00257165
341 1 0.312494 0.687602 0.0623492 -0.000340721 0.00526466 -0.00263145
342 1 0.249758 0.624999 0.124753 -0.0161183 0.0519837 -0.0231202
343 1 0.31264 0.68763 0.187364 -2.42858e-05 -0.00777785 -0.000616929
344 1 0.250131 0.62487 0.249878 -0.0114609 0.0629659 0.0118057
345 1 0.312583 0.687448 0.312454 0.000245475 0.00419261 0.00440984
346 1 0.250006 0.624957 0.375082 0.00731072 0.0210017 0.0109445
347 1 0.31253 0.687532 0.437566 -0.000271281 -3.55516e-05 0.000785992
348 1 0.249947 0.625052 0.500093 -0.000747666 0.00350892 0.00129669
349 1 0.3125 0.687472 0.56258 -2.65397e-05 0.00169445 0.000627608
350 1 0.250041 0.625049 0.625083 -5.1071e-05 -0.000345953 -0.00048949
351 1 0.312534 0.687469 0.687518 0.000156398 -6.43287e-05 -0.00033412
352 1 0.250014 0.625078 0.749951 -0.000242139 -0.000152896 -0.000271206
353 1 0.312539 0.687584 0.812328 2.46783e-05 -0.000686479 -0.000225011
354 1 0.249953 0.625291 0.874674 -0.000377035 -0.00148743 0.000801923
355 1 0.31253 0.687729 0.937193 1.03658e-05 0.000229173 -0.000883172
356 1 0.249962 0.750023 0.999841 0.0001736 8.45756e-05 -0.000350476
357 1 0.312595 0.812388 0.0623633 0.00099847 0.00206573 0.000814016
358 1 0.249991 0.75 0.124935 -0.0004902 0.00144707 -0.00104144
359 1 0.312582 0.812536 0.187474 0.00159939 3.77431e-05 -0.0018027
360 1 0.250073 0.749983 0.249942 -0.000720105 0.00149502 0.000529803
361 1 0.312658 0.812408 0.312538 -0.00120298 0.00970936 -0.000754654
362 1 0.250045 0.749977 0.374968 -0.000833251 -0.000976321 0.00010869
363 1 0.312557 0.812396 0.437595 -0.00100747 -0.00132482 0.000931735
364 1 0.249988 0.749918 0.500037 2.25883e-05 0.000636991 -0.000182722
365 1 0.312528 0.812243 0.562702 -3.9837e-05 0.000588267 -9.15785e-05
366 1 0.24998 0.749882 0.625059 0.00027602 0.000158689 -2.37547e-05
367 1 0.312525 0.812297 0.687554 0.000573171 -0.000508661 -0.000972566
368 1 0.249981 0.749936 0.749913 0.000348688 -0.000559664 -0.000557927
369 1 0.312556 0.81234 0.81234 0.000585854 -0.000961526 -0.000980788
370 1 0.249969 0.750012 0.874772 0.000370956 -0.000673012 -0.000835334
371 1 0.312588 0.81232 0.937241 -0.000117652 -0.00114518 -0.00115765
372 1 0.250056 0.874586 0.999577 -0.00258283 -0.00148278 -0.00209414
373 1 0.313181 0.936695 0.0615307 0.0110189 0.0266996 0.0466996
374 1 0.250182 0.875083 0.124746 0.0125958 -0.0535608 -0.0198326
375 1 0.312751 0.93749 0.18745 0.0104108 -1.25126e-05 -0.00958122
376 1 0.250157 0.875144 0.249946 -0.00153136 -0.0719503 -0.00126196
377 1 0.313113 0.936046 0.312885 0.00679065 0.12974 -0.000151798
378 1 0.249997 0.875087 0.375184 -0.0144438 -0.0518344 0.017669
379 1 0.312682 0.936953 0.438266 0.00800235 -0.0203235 -0.00994784
380 1 0.249985 0.874622 0.500324 0.0034439 -0.00191032 0.000852982
381 1 0.312582 0.93692 0.563017 -0.00297898 -0.00135793 0.000693391
382 1 0.249937 0.874687 0.625199 0.000788843 0.000179241 -0.00135756
383 1 0.312566 0.937157 0.687685 0.000155477 -0.000893646 -0.00135821
384 1 0.249982 0.874741 0.749942 0.00046186 -0.00120453 -0.00130139
385 1 0.312632 0.937149 0.812268 0.000109839 -0.00162521 -0.00190145
386 1 0.250016 0.874675 0.874689 0.00096071 -0.00134504 -0.000929053
387 1 0.31276 0.936944 0.936983 0.0037491 -0.00603986 -0.00485427
388 1 0.37584 0.999091 0.999227 0.00217066 -0.00626046 -0.0114478
389 1 0.438123 0.061704 0.0617932 -0.0404531 0.077164 0.0929878
390 1 0.374496 0.000359685 0.125836 0.00696991 -0.0235804 -0.0283445
391 1 0.438791 0.0613301 0.186306 -0.000928963 0.0469008 0.000792764
392 1 0.376815 0.998723 0.24894 -0.0413482 0.00697437 0.00984469
393 1 0.438568 0.0615858 0.314925 0.0782822 -0.079505 0.000113439
394 1 0.37688 0.997799 0.376736 -0.0146829 0.0633782 -0.0128782
395 1 0.436811 0.0631872 0.436814 0.0835392 -0.0835395 0.0835398
396 1 0.375932 0.998643 0.501321 0.00314763 0.0804727 -0.0827986
397 1 0.438419 0.0615487 0.563388 -0.00575484 0.0057883 0.0150513
398 1 0.375289 0.999451 0.625502 -0.00143384 0.0010647 -0.00297943
399 1 0.43776 0.0622357 0.687763 0.000332015 -5.20959e-05 0.000875792
400 1 0.375143 0.999758 0.750004 0.00187725 -0.000876399 -0.000864863
401 1 0.437671 0.0623633 0.812414 0.000566583 0.000185971 -0.00247007
402 1 0.375455 0.999472 0.874511 0.00222185 0.00176508 0.00116177
403 1 0.437718 0.062357 0.937283 -0.000682301 -0.000347402 -0.00295511
404 1 0.375006 0.125223 0.999877 -0.0422415 0.0101671 0.0140028
405 1 0.438143 0.186384 0.0616788 0.00156566 0.0162083 0.054396
406 1 0.375208 0.124203 0.124782 0.0973848 0.0305031 -0.0282109
407 1 0.433146 0.192234 0.192102 0.232588 -0.146346 -0.181502
408 1 0.38202 0.119248 0.250225 -0.0448285 0.0234148 -0.0238026
409 1 0.447368 0.185175 0.315392 -0.0379823 -0.0745931 0.0545264
410 1 0.369899 0.130099 0.369902 0.261133 -0.261134 0.261135
411 1 0.438413 0.185077 0.43857 0.0795048 -0.000113021 0.0782826
412 1 0.376733 0.123119 0.502202 -0.0128787 0.014683 -0.0633783
413 1 0.438263 0.187316 0.563048 -0.00994812 -0.0080024 0.0203233
414 1 0.375391 0.124542 0.625285 0.0136458 -0.0134868 0.0298302
415 1 0.437592 0.187442 0.687605 0.000931687 0.00100742 0.00132476
416 1 0.375073 0.124886 0.750035 0.00045727 0.000367225 0.000235537
417 1 0.437563 0.187468 0.812469 0.000785992 0.000271205 3.55428e-05
418 1 0.375165 0.124839 0.874821 0.00161679 -0.000642634 -0.0101381
419 1 0.438064 0.187126 0.93703 -0.00647429 0.00282213 0.00513772
420 1 0.376265 0.249494 0.998899 -0.055351 -0.0254494 0.0434234
421 1 0.437492 0.314436 0.062671 0.108324 0.0320958 -0.0943686
422 1 0.379767 0.250482 0.120137 -0.0859129 0.0535717 0.125193
423 1 0.447046 0.315047 0.185556 -0.0582716 0.0626921 -0.0740943
424 1 0.433295 0.309086 0.309771 0.248926 0.127634 0.0594415
425 1 0.38075 0.249776 0.382023 -0.0234145 0.023803 -0.0448284
426 1 0.438668 0.313695 0.438793 -0.0469003 -0.000792654 -0.000928865
427 1 0.376252 0.250916 0.501255 -0.0232043 -0.0104348 -0.0169322
428 1 0.438307 0.312965 0.563173 -0.0605543 0.00692295 -0.044633
429 1 0.375181 0.250001 0.624914 0.0176689 0.0144438 0.0518344
430 1 0.437518 0.312516 0.6876 -0.00250846 0.000267159 -0.00207726
431 1 0.374966 0.249953 0.750024 0.000108685 0.000833214 0.00097628
432 1 0.437468 0.312504 0.812544 0.000438432 0.00116989 -0.00122433
433 1 0.375079 0.249992 0.875045 0.0109446 -0.00731076 -0.0210018
434 1 0.437748 0.31273 0.937496 0.016177 0.00243999 -0.0387827
435 1 0.375345 0.375485 0.999601 0.0239354 0.0247283 0.0244998
436 1 0.436695 0.436725 0.0631146 0.0600868 0.0786545 -0.0532992
437 1 0.370235 0.371716 0.131118 0.102919 0.125313 -0.184921
438 1 0.439176 0.439179 0.18557 0.0338279 0.0606836 0.00550987
439 1 0.381799 0.383587 0.251363 -0.0560227 -0.0418981 -0.0163851
440 1 0.439311 0.43945 0.314565 0.0154711 -0.011103 0.00244361
441 1 0.375796 0.375219 0.375211 -0.030503 0.0282103 0.0973848
442 1 0.438294 0.438208 0.438126 -0.0771635 -0.0929878 -0.040453
443 1 0.373782 0.373861 0.498978 0.0581504 0.045316 0.0604836
444 1 0.437188 0.437189 0.562343 0.000622869 -0.000774668 -0.00105139
445 1 0.37485 0.374796 0.624813 0.00593925 0.00649651 0.0272577
446 1 0.437388 0.437386 0.68751 0.000999972 0.00114173 0.0046537
447 1 0.374916 0.374906 0.750021 -0.000102423 0.000850681 -0.000209263