ITEM: TIMESTEP
0
ITEM: NUMBER OF ATOMS
1026
ITEM: BOX BOUNDS pp pp pp
0.0000000000000000e+00 2.2857118000000000e+01
0.0000000000000000e+00 2.2857118000000000e+01
0.0000000000000000e+00 2.2857118000000000e+01
ITEM: ATOMS id type xs ys zs fx fy fz
1 1 0.247018 0.249023 0.119751 0.0789015 0.252776 0.221109
2 1 0.298488 0.318523 0.176844 -0.194151 -0.121264 0.380196
3 1 0.223432 0.126956 0.221757 0.164753 -0.235966 0.221928
4 1 0.176841 0.201511 0.181478 0.380198 0.194153 0.121261
5 1 0.373042 0.278244 0.223435 0.23596 -0.221925 0.164753
6 1 0.250976 0.38025 0.247021 -0.252758 -0.221115 0.0788981
7 1 0.289476 0.140405 0.289216 -0.15479 0.00799286 -0.136398
8 1 0.359593 0.210785 0.289478 -0.00799292 0.136398 -0.15479
9 1 0.119748 0.25298 0.250978 0.221123 -0.0788995 -0.25276
10 1 0.181476 0.323157 0.298491 0.121268 -0.38019 -0.194153
11 1 0.289214 0.210522 0.359596 -0.136401 0.154793 -0.00799586
12 1 0.221754 0.276566 0.373045 0.221922 -0.16475 0.235951
13 1 0.999443 0.999785 0.999542 -0.00122485 -0.000650882 -0.0013586
14 1 0.0617507 0.062511 0.0618757 0.0252454 0.0153264 0.025281
15 1 0.9997 0.999571 0.124719 -0.0152903 -0.0134521 -0.0191887
16 1 0.0622541 0.0617827 0.186846 -0.0525853 -0.062266 -0.0282295
17 1 9.23674e-05 3.81795e-05 0.250145 -0.0303543 -0.0141239 0.0109826
18 1 0.0628004 0.0628239 0.312856 -0.0283998 0.000631821 0.019824
19 1 8.45912e-05 8.38229e-05 0.375105 -0.00856218 0.00813097 -0.00165968
20 1 0.0626695 0.062563 0.437533 0.0473274 0.0208253 -0.0322204
21 1 0.999992 0.999917 0.500057 0.00891987 0.00469726 -0.00516884
22 1 0.0624955 0.0625995 0.562533 -0.00359104 -0.00151365 0.00513304
23 1 0.999922 0.999933 0.625025 -0.000449246 0.00191304 0.00157231
24 1 0.0624138 0.0624195 0.687548 -5.24703e-05 7.53783e-05 0.00300663
25 1 0.99985 0.999858 0.7499 0.000355657 0.000434564 0.00222114
26 1 0.062316 0.0623116 0.81231 0.000813394 0.000777834 0.00183555
27 1 0.999643 0.999709 0.874619 0.00283407 0.00223239 0.0021618
28 1 0.0619485 0.0619922 0.93691 0.00431722 0.00676689 -0.00182884
29 1 0.999028 0.124503 0.999025 0.0159363 0.00653876 0.0171362
30 1 0.0608748 0.186675 0.0609305 0.0700523 0.0197685 0.052422
31 1 0.999945 0.124942 0.124853 -0.0525339 -0.0183455 -0.0172289
32 1 0.0609571 0.188806 0.186419 0.0378315 0.00299667 -0.0752689
33 1 0.99974 0.125043 0.249763 0.0163985 -0.000371603 0.000420711
34 1 0.0619542 0.187479 0.312736 -0.0758306 0.051798 0.0180424
35 1 0.999992 0.125023 0.375236 0.00576773 0.0066519 -0.00860525
36 1 0.0627028 0.18744 0.437371 -0.0235534 -0.0118474 -0.00522731
37 1 0.999978 0.124939 0.500053 -0.00280791 0.00460232 -0.01129
38 1 0.0616043 0.186929 0.563355 0.0392306 0.00416965 -0.0398062
39 1 0.999618 0.124676 0.625357 0.00471988 0.00193816 -0.00545292
40 1 0.062352 0.187395 0.687626 0.00130909 -0.00153344 -0.00241163
41 1 0.999829 0.124882 0.749982 2.98809e-05 -0.00145498 -0.000567594
42 1 0.0623184 0.187447 0.81237 -0.000611266 -0.00165235 -0.00330759
43 1 0.999619 0.124789 0.874596 0.000402352 -0.00141027 5.05138e-05
44 1 0.0618366 0.187294 0.936925 -0.00496654 -0.00701621 -0.0235137
45 1 0.998778 0.249981 0.99873 0.0206071 0.00295264 0.0262056
46 1 0.0595162 0.314821 0.0594406 0.0252655 -0.0308302 0.026169
47 1 0.99877 0.25045 0.123598 0.0137578 0.0145818 -0.0134101
48 1 0.0595554 0.314342 0.185465 0.0460927 -0.0104718 0.0402672
49 1 0.999478 0.250812 0.250128 -0.0141739 0.00424338 -0.0084703
50 1 0.0607153 0.315466 0.312705 -0.0559466 -0.0182411 -0.0561466
51 1 0.999545 0.25069 0.375459 0.040993 -0.00255713 -0.0187725
52 1 0.0618076 0.313817 0.438996 -0.0118424 0.0107234 -0.0131484
53 1 0.99983 0.24999 0.500295 -0.0194326 -0.00901341 0.00537539
54 1 0.0612937 0.31257 0.563833 0.0548862 0.00460919 -0.0639043
55 1 0.99947 0.249839 0.625482 -0.00403094 0.00165071 0.00464271
56 1 0.0623068 0.31254 0.687637 -0.00479795 -0.00186227 0.00228585
57 1 0.999798 0.249984 0.749982 -0.00124034 -0.000945019 0.000157243
58 1 0.0622699 0.312617 0.812314 -0.00236103 0.000334571 -0.00338819
59 1 0.999547 0.250007 0.874553 -0.00250364 -0.00248436 -0.00244758
60 1 0.0615615 0.31297 0.936637 -0.014252 0.00766075 -0.0219712
61 1 0.998312 0.37632 0.998296 0.013745 -0.0137148 0.0152131
62 1 0.0609208 0.439078 0.0609235 -0.0146008 0.0146007 -0.0146004
63 1 0.998185 0.376321 0.123588 -0.000475263 0.0120985 -0.00198081
64 1 0.0594379 0.440482 0.18518 0.0261694 -0.0252659 0.0308309
65 1 0.99848 0.376475 0.249484 0.029013 0.0293836 0.00254645
66 1 0.0609278 0.439124 0.313327 0.0524217 -0.0700512 -0.0197673
67 1 0.999108 0.375959 0.375808 0.0204533 -0.0147679 -0.0141932
68 1 0.0618729 0.438248 0.43749 0.025282 -0.0252461 -0.0153262
69 1 0.999381 0.375747 0.500842 -0.0106631 0.011071 -0.000111963
70 1 0.0610749 0.439047 0.564048 0.010703 -0.00847009 -0.00828603
71 1 0.999355 0.375325 0.625612 -0.00115926 -0.00180919 0.000476713
72 1 0.0622248 0.437824 0.687711 -0.00741442 0.00739963 0.010613
73 1 0.999747 0.375152 0.749952 -0.00302068 0.00069673 0.000935057
74 1 0.0622515 0.437774 0.812236 -0.00387778 0.0037404 -0.00375142
75 1 0.999404 0.375357 0.874398 -0.00416462 0.00236401 -0.00454224
76 1 0.0616213 0.438406 0.936393 -0.00418076 0.00217261 -0.00670508
77 1 0.998949 0.50105 0.998951 -0.00246804 0.00246802 -0.00246785
78 1 0.0615928 0.563608 0.061624 -0.00217183 0.00670465 -0.00418028
79 1 0.998293 0.501686 0.123681 0.0152131 -0.0137445 0.0137146
80 1 0.0615648 0.5633 0.187137 -0.01071 0.0200293 -0.012024
81 1 0.998727 0.50122 0.25002 0.0262046 -0.0206063 -0.00295229
82 1 0.0620243 0.562901 0.312736 -0.0046907 0.0167699 0.000647723
83 1 0.999022 0.50097 0.375498 0.0171354 -0.0159357 -0.0065385
84 1 0.062426 0.562686 0.437619 -0.00486913 0.00952414 -0.000964874
85 1 0.999539 0.500556 0.500216 -0.00135832 0.00122445 0.000650599
86 1 0.0623221 0.562762 0.562707 -0.00806322 0.00990964 0.0058159
87 1 0.999316 0.500771 0.625654 0.00353649 -0.0032958 -0.00441274
88 1 0.0623275 0.562866 0.68766 0.00020671 0.00265418 0.00146136
89 1 0.999719 0.500321 0.749953 -0.00342777 0.00311236 5.24833e-05
90 1 0.0622535 0.562895 0.812166 -0.001416 0.00225458 -0.00118471
91 1 0.999435 0.500578 0.874347 -0.00245629 0.00203443 -0.00362831
92 1 0.0617457 0.563459 0.936543 0.00350548 -0.0038168 0.00308248
93 1 0.99942 0.625654 0.999438 -0.0020341 0.00362817 -0.00245617
94 1 0.0622242 0.687765 0.0622542 -0.00374035 0.00375134 -0.00387771
95 1 0.999423 0.625578 0.124699 -0.00439131 0.00520441 -0.003901
96 1 0.0622999 0.687664 0.187436 -0.00244776 0.00310076 -0.000646996
97 1 0.999611 0.625382 0.250065 -0.00174246 0.00274577 -0.000347943
98 1 0.0624475 0.687554 0.312548 -0.000396905 0.00274213 0.000795969
99 1 0.99977 0.625282 0.375194 0.00133961 -0.00123413 -1.38356e-05
100 1 0.062573 0.687517 0.437486 -0.00162875 0.00059938 0.000803815
101 1 0.999942 0.625175 0.500072 -0.00260427 0.00164671 0.00113183
102 1 0.0624781 0.687519 0.562514 -0.000859241 -0.000340655 4.09561e-05
103 1 0.999851 0.625203 0.625052 -0.00252983 0.00234384 0.00171391
104 1 0.0624079 0.687582 0.687431 0.000559893 0.000640236 -0.000246181
105 1 0.999767 0.625306 0.749874 -9.43646e-05 0.00193798 -0.000109511
106 1 0.0623025 0.687735 0.812212 0.00151848 0.000897094 -0.00122636
107 1 0.999537 0.625528 0.874463 0.00117286 -0.000596332 0.000158
108 1 0.062202 0.68783 0.93709 -0.000814296 0.000993458 -0.00282055
109 1 0.999677 0.750048 0.999722 -0.00311244 -5.24812e-05 -0.00342781
110 1 0.0621743 0.81229 0.0622275 -0.00739972 -0.0106129 -0.00741449
111 1 0.999775 0.75005 0.124929 -0.00356592 -0.000538063 -0.00137813
112 1 0.0623609 0.812373 0.187538 -0.00567525 -0.00276562 0.00175685
113 1 0.999881 0.750004 0.250075 -0.00204826 -0.000368243 0.000700336
114 1 0.0624738 0.812385 0.312603 0.00146804 0.00152805 0.00134077
115 1 0.999964 0.749975 0.375089 -1.26497e-05 -0.000377847 0.00122544
116 1 0.0625913 0.812442 0.437428 -0.00159806 -0.00451163 0.00149213
117 1 4.15318e-05 0.749993 0.49997 -0.00158187 -0.00123269 0.0012493
118 1 0.0623607 0.812298 0.56258 -0.000300735 0.00150722 -0.00136069
119 1 0.999902 0.749968 0.624975 -9.10121e-05 0.00073064 2.52246e-05
120 1 0.062363 0.812388 0.687462 0.00036014 -0.000150309 0.000759624
121 1 0.999817 0.750061 0.749825 0.000724191 0.000648502 -0.000254138
122 1 0.0623123 0.812436 0.8123 0.00154062 0.000489455 1.41601e-05
123 1 0.999698 0.750078 0.874658 0.000604678 0.000313452 -0.00192794
124 1 0.0621961 0.812285 0.937097 0.00169352 -0.000937083 -0.00228343
125 1 0.999227 0.874347 0.999319 0.0032956 0.00441241 0.00353623
126 1 0.0609518 0.935954 0.0610776 0.00846979 0.0082855 0.010703
127 1 0.999409 0.874449 0.124847 -0.00054389 0.000692422 0.000651908
128 1 0.061349 0.936254 0.187639 0.0585658 0.0658813 -0.00745625
129 1 0.999566 0.874582 0.250254 -0.00485902 -0.00571428 -0.00300836
130 1 0.0617031 0.936724 0.313107 0.0431133 0.0440268 -0.0038291
131 1 0.999726 0.874685 0.375293 0.00411261 0.00464432 -0.000821061
132 1 0.06264 0.937548 0.437252 -0.00462625 -0.0067756 0.00505356
133 1 3.47041e-05 0.874949 0.499927 -0.00183493 -0.00148598 -0.000368498
134 1 0.0621914 0.937171 0.562738 -0.00269789 -0.000168421 0.00111147
135 1 0.999855 0.874838 0.625033 -0.00113255 0.000340167 5.92876e-05
136 1 0.062259 0.937251 0.687608 0.000485853 0.00145574 -0.00163336
137 1 0.99979 0.874848 0.749897 0.00128875 0.00101989 -0.00043162
138 1 0.062279 0.937264 0.812312 0.000908186 0.00121776 0.00122977
139 1 0.999653 0.87479 0.874686 0.000207326 0.0010742 -0.000362537
140 1 0.0620057 0.937049 0.937042 -0.00251819 0.000999375 -0.0045482
141 1 0.124252 0.999159 0.999383 -0.0110712 0.000111827 -0.0106629
142 1 0.186182 0.061005 0.0618104 -0.0107232 0.0131508 -0.0118418
143 1 0.121591 0.996395 0.121791 0.000122331 -0.0522737 0.0045373
144 1 0.181359 0.0499933 0.181565 0.0207063 -0.151775 -0.00336163
145 1 0.123277 0.998746 0.251442 0.0885746 0.0145442 -0.0473592
146 1 0.190961 0.0653825 0.310358 -0.183988 -0.108009 -0.0905398
147 1 0.125612 0.000448804 0.374147 0.0057211 -0.00957609 0.00177826
148 1 0.185769 0.0606406 0.439328 -0.00381129 -0.0204292 0.00503811
149 1 0.124263 0.999282 0.500655 -0.00709577 0.000154024 0.00265245
150 1 0.186759 0.061458 0.563293 -0.00486063 0.0235533 -0.00326322
151 1 0.124588 0.999551 0.625407 0.000177703 0.00576983 -0.0049397
152 1 0.187368 0.0622733 0.687647 -0.00236344 0.00100772 0.000265935
153 1 0.124858 0.999794 0.750007 -0.000594166 0.00113298 0.000511184
154 1 0.187388 0.0623076 0.812449 0.000660975 0.00169805 0.00031058
155 1 0.124752 0.999637 0.874713 0.002272 0.00215802 0.00328103
156 1 0.187147 0.0619619 0.937219 0.000751011 0.00154766 -0.005804
157 1 0.12404 0.124193 0.999111 0.0147681 0.0141931 0.0204542
158 1 0.184532 0.187296 0.060718 0.0182409 0.0561449 -0.055947
159 1 0.125577 0.12475 0.126027 0.042486 0.0295277 0.0357938
160 1 0.121681 0.125149 0.248716 0.037894 0.0593853 0.0648915
161 1 0.18689 0.18852 0.310943 -0.121871 0.217826 -0.0395964
162 1 0.12644 0.1257 0.374624 -0.0404584 -0.0762053 0.025373
163 1 0.190402 0.189013 0.434917 -0.142221 0.167716 0.0886579
164 1 0.125364 0.125643 0.499777 0.0122059 0.0157601 0.000365686
165 1 0.187587 0.187534 0.562456 0.00137407 0.00239973 -0.00694483
166 1 0.124993 0.124957 0.625047 -0.00320075 -0.00217585 0.0170359
167 1 0.187503 0.187466 0.687441 -0.00169071 -0.000308436 0.000678179
168 1 0.124936 0.124922 0.749975 0.000363938 0.000892418 0.000433603
169 1 0.187361 0.187429 0.812478 -0.00020544 0.00101071 -0.000638313
170 1 0.124716 0.124768 0.874764 0.000523446 -0.000884587 -0.000100056
171 1 0.186915 0.187326 0.937279 -0.00577319 -0.000731273 -0.0263905
172 1 0.123523 0.250517 0.998483 -0.0293845 -0.00254721 0.029015
173 1 0.185657 0.314536 0.0595582 0.0104688 -0.0402679 0.046092
174 1 0.119471 0.254192 0.118768 0.0249311 -0.0101979 0.21494
175 1 0.184341 0.315657 0.184344 0.0528037 -0.052801 0.052795
176 1 0.12115 0.252396 0.374826 0.0382381 -0.157476 -0.00225822
177 1 0.181562 0.31864 0.450008 -0.00335677 -0.0207105 0.151773
178 1 0.123128 0.248702 0.501365 0.0948556 0.0557794 -0.0249711
179 1 0.187019 0.312939 0.564 -0.02457 0.0255954 -0.192217
180 1 0.124736 0.24988 0.624992 -0.0157248 -0.0172176 0.0539485
181 1 0.187418 0.312535 0.687557 0.00126217 -0.00101558 -0.00725112
182 1 0.12491 0.24999 0.749951 -0.000379189 -0.000804787 0.00203478
183 1 0.187399 0.312559 0.812458 -0.0024035 0.000956874 -0.00396453
184 1 0.124679 0.250097 0.874768 -0.00485362 -0.00257501 -0.0039635
185 1 0.187107 0.312879 0.937158 -0.00899633 0.00832331 -0.0384839
186 1 0.123678 0.376413 0.998188 -0.0120993 0.0019809 -0.000474583
187 1 0.185177 0.44056 0.0595189 0.0308302 -0.0261687 0.0252656
188 1 0.122707 0.377291 0.12271 -0.0204811 0.0204816 -0.0204835
189 1 0.185462 0.440443 0.18566 0.0402687 -0.0460988 0.0104767
190 1 0.118766 0.380527 0.24581 0.214927 -0.0249296 0.010196
191 1 0.186416 0.439041 0.311195 -0.0752692 -0.0378242 -0.00299631
192 1 0.126024 0.374421 0.375251 0.0357949 -0.0424871 -0.0295253
193 1 0.186843 0.437744 0.438218 -0.0282294 0.0525835 0.0622649
194 1 0.121788 0.378407 0.503606 0.00453727 -0.000123556 0.052272
195 1 0.187636 0.438649 0.563747 -0.00745649 -0.0585664 -0.065882
196 1 0.124577 0.375467 0.625439 -0.0150492 0.0156346 0.0122428
197 1 0.187535 0.437637 0.687628 0.00175689 0.00567524 0.00276565
198 1 0.124888 0.375121 0.749969 -0.00176329 0.00199845 0.00120301
199 1 0.187434 0.437698 0.812337 -0.000647155 0.00244802 -0.00310069
200 1 0.124711 0.375326 0.874644 -0.00700791 0.00510509 -0.0110006
201 1 0.187134 0.438433 0.936702 -0.0120241 0.0107109 -0.0200301
202 1 0.123678 0.501705 0.998315 0.0137149 -0.0152131 0.0137448
203 1 0.187028 0.563364 0.0615643 -0.00766037 0.0219709 -0.0142519
204 1 0.123585 0.501813 0.12368 -0.00197919 0.000473776 -0.0120981
205 1 0.187119 0.562843 0.18711 -0.00832346 0.0384823 -0.00899611
206 1 0.123596 0.501228 0.249551 -0.0134095 -0.013757 -0.0145824
207 1 0.187381 0.562546 0.312196 -0.00843851 0.0155068 0.00422155
208 1 0.12485 0.500053 0.375059 -0.017229 0.0525335 0.0183451
209 1 0.187417 0.56247 0.437578 -0.000437363 0.00716508 0.00195432
210 1 0.124716 0.500298 0.50043 -0.019189 0.01529 0.0134521
211 1 0.18758 0.562585 0.562581 0.00209302 0.00397985 0.00299919
212 1 0.124844 0.50059 0.625552 0.000651831 0.000543649 -0.000692654
213 1 0.187553 0.562739 0.687639 -3.57371e-05 0.00271496 0.00123427
214 1 0.124926 0.500224 0.749951 -0.00137834 0.00356599 0.000538245
215 1 0.187477 0.562785 0.812256 0.000837192 0.00171644 -0.00151031
216 1 0.124697 0.500575 0.874423 -0.00390127 0.00439183 -0.00520482
217 1 0.187301 0.563293 0.936711 0.00253502 -0.0034234 0.00241092
218 1 0.124641 0.625603 0.999407 -0.00236385 0.0045423 -0.00416439
219 1 0.187381 0.687687 0.0622727 -0.000334704 0.00338824 -0.00236079
220 1 0.124672 0.625357 0.124714 -0.00510497 0.0110003 -0.00700754
221 1 0.187439 0.687543 0.187402 -0.000956816 0.00396455 -0.00240326
222 1 0.124751 0.625159 0.249888 -0.0012337 0.00311157 0.000467214
223 1 0.187564 0.687442 0.312384 -0.000539739 0.00164893 0.00019049
224 1 0.125032 0.624976 0.374956 -0.00106546 0.00524019 0.00211012
225 1 0.187563 0.687414 0.437451 -1.36022e-05 0.000149924 -0.000383357
226 1 0.125005 0.625041 0.500063 1.57944e-06 -0.00109608 -0.000675309
227 1 0.187537 0.687437 0.562498 0.000236228 -0.000643081 0.000100802
228 1 0.124995 0.625091 0.625028 0.000164471 0.00197265 0.00101914
229 1 0.187494 0.687521 0.687463 0.000973455 -2.42415e-05 -0.00035246
230 1 0.124937 0.625224 0.749899 0.000405594 0.00175389 -0.000566448
231 1 0.187463 0.687678 0.812268 0.00130492 0.000814515 -0.000782178
232 1 0.124793 0.625466 0.874516 0.00188329 -3.95094e-05 -0.000208406
233 1 0.187422 0.687757 0.937161 0.000917641 0.00121652 -0.00158158
234 1 0.124846 0.75005 0.99975 -0.000696687 -0.000934865 -0.00302058
235 1 0.187459 0.812364 0.0623095 0.0018624 -0.00228584 -0.004798
236 1 0.124877 0.750032 0.124891 -0.00199835 -0.00120285 -0.00176324
237 1 0.187463 0.812444 0.187421 0.00101548 0.00725127 0.00126219
238 1 0.124999 0.75003 0.25 -0.000439596 -0.00191199 0.00040274
239 1 0.187662 0.81257 0.312412 -0.00278988 -0.00174795 0.00126797
240 1 0.125127 0.749971 0.374932 -0.000975688 -0.000976736 5.67844e-05
241 1 0.187491 0.812348 0.437566 -0.00246079 -0.0014519 -0.000538995
242 1 0.125014 0.749891 0.500005 -0.00173055 -0.00049732 -0.000218018
243 1 0.18741 0.812232 0.562661 0.000591261 -0.00201209 0.000887597
244 1 0.124944 0.749899 0.625008 0.000334744 -0.0005908 0.000762079
245 1 0.187427 0.812338 0.687536 0.000289119 -0.000106168 0.000372565
246 1 0.124908 0.750016 0.749872 0.000895829 0.000301909 -0.000147827
247 1 0.187442 0.812423 0.812363 0.00106264 0.000320532 -5.26081e-05
248 1 0.124865 0.750054 0.874711 0.00147031 0.000556081 -0.0020493
249 1 0.187454 0.812314 0.937176 0.000639065 -0.000554396 -0.00184529
250 1 0.124673 0.874389 0.999358 0.00180936 -0.000477047 -0.00115954
251 1 0.187428 0.936168 0.0612965 -0.00460911 0.0639036 0.0548857
252 1 0.124531 0.874562 0.124579 -0.0156348 -0.0122433 -0.0150493
253 1 0.187059 0.936001 0.187022 -0.0255952 0.192219 -0.0245697
254 1 0.124847 0.87505 0.250135 -0.0163307 -0.0549976 0.01755
255 1 0.187838 0.937663 0.312284 -0.00459396 0.00231175 -0.000706503
256 1 0.125185 0.875048 0.374898 -0.00612901 -0.0223645 0.00498656
257 1 0.186875 0.93676 0.4384 -0.00900645 0.00366328 -0.0255552
258 1 0.124685 0.874578 0.500304 -0.00151851 0.0046908 -0.00564727
259 1 0.187263 0.937005 0.562927 -0.00463991 -0.00819716 0.00820205
260 1 0.124822 0.874731 0.625154 -0.0006612 -0.00145462 0.00122739
261 1 0.187352 0.937191 0.687697 0.000796773 -0.000735048 0.00139536
262 1 0.124863 0.87482 0.749967 0.000997231 -0.000185967 0.00104079
263 1 0.187435 0.937296 0.812405 0.000335238 0.00114976 0.001935
264 1 0.124842 0.874803 0.874755 0.00115217 0.000445703 0.000100788
265 1 0.187413 0.937182 0.937203 0.00241087 0.000807886 -0.00018765
266 1 0.250008 0.999706 0.999832 0.00901329 -0.00537511 -0.0194324
267 1 0.312559 0.0626302 0.0627055 0.0118461 0.00522856 -0.0235516
268 1 0.251296 0.998636 0.123131 -0.0557788 0.0249707 0.0948555
269 1 0.310986 0.065084 0.190405 -0.167712 -0.0886622 -0.142223
270 1 0.249581 0.00108265 0.249204 -0.0499557 -0.14726 -0.0389275
271 1 0.316125 0.050086 0.315789 0.0814447 -0.0762281 0.0917221
272 1 0.249045 0.99802 0.377082 0.0279966 0.0348147 -0.0532237
273 1 0.315144 0.0604943 0.43939 -0.0148484 -0.0690415 0.0741036
274 1 0.250131 0.99892 0.501021 -0.00824625 0.0340581 -0.0317443
275 1 0.312718 0.0611943 0.563578 0.0145779 0.0260515 -0.00223227
276 1 0.249865 0.999411 0.625528 0.00165306 -0.00093301 0.000619187
277 1 0.312546 0.0622617 0.687686 -0.00108016 -0.00325902 0.00375563
278 1 0.249972 0.999809 0.750071 -0.000890077 0.000662752 0.000817753
279 1 0.312475 0.0623853 0.812522 -0.00111036 0.00175999 0.00174451
280 1 0.249979 0.999782 0.874881 -0.000784359 0.00340702 0.00339512
281 1 0.312446 0.0623029 0.937472 -0.00343672 0.00540974 -0.00169755
282 1 0.249309 0.124542 0.999548 0.00255662 0.0187725 0.0409938
283 1 0.312519 0.187265 0.0619569 -0.0518011 -0.018044 -0.0758288
284 1 0.247602 0.125175 0.121153 0.157476 0.00225972 0.0382377
285 1 0.311479 0.189058 0.186892 -0.217832 0.0395986 -0.121865
286 1 0.250043 0.116814 0.382856 -0.0524855 0.0709904 -0.0476449
287 1 0.315786 0.183873 0.449915 0.0917229 -0.0814461 0.0762288
288 1 0.248885 0.122662 0.501992 0.0345687 0.0565254 -0.0213444
289 1 0.312644 0.187167 0.564126 0.00903463 -0.00804029 -0.21289
290 1 0.249876 0.124542 0.625084 -0.018828 -0.0115635 0.0407596
291 1 0.312495 0.187369 0.687585 -0.0018424 0.00217028 -0.00701338
292 1 0.249933 0.124879 0.750019 -0.000746957 0.000831996 0.00105319
293 1 0.312398 0.187419 0.81258 -0.00061974 0.000656244 0.000242572
294 1 0.249814 0.124823 0.87499 -0.000414545 0.00396562 0.00339109
295 1 0.312281 0.187364 0.937637 0.00143181 -0.000310355 -0.0181332
296 1 0.249186 0.249873 0.99948 -0.0042437 0.00847044 -0.0141755
297 1 0.311192 0.313582 0.0609599 -0.00299569 0.0752698 0.0378284
298 1 0.251056 0.248942 0.251059 -0.236742 0.236744 -0.23674
299 1 0.31094 0.313109 0.311481 -0.0395998 0.121868 -0.217828
300 1 0.310355 0.309037 0.434619 -0.0905476 0.183985 0.108003
301 1 0.249202 0.250418 0.498918 -0.0389256 0.049954 0.147268
302 1 0.312282 0.312161 0.562338 -0.000706388 0.00459374 -0.00231209
303 1 0.249903 0.24994 0.624663 -0.00395007 0.00521764 0.0869286
304 1 0.31241 0.312336 0.687432 0.00126787 0.00278994 0.00174807
305 1 0.249921 0.249932 0.749985 -0.000238715 0.000993278 0.000680234
306 1 0.312382 0.312435 0.812559 0.000190309 0.000539893 -0.00164887
307 1 0.249763 0.249941 0.875036 0.000299158 0.00109934 -0.00363296
308 1 0.312193 0.312617 0.937455 0.00422156 0.00843853 -0.0155073
309 1 0.249548 0.376403 0.998773 -0.0145822 0.0134094 0.0137576
310 1 0.313324 0.439071 0.0608775 -0.0197679 -0.0524206 0.0700512
311 1 0.245807 0.381233 0.119474 0.0101968 -0.214943 0.0249299
312 1 0.312702 0.439283 0.184535 -0.0561438 0.0559467 0.0182399
313 1 0.312733 0.438044 0.312522 0.0180436 0.0758298 -0.0517997
314 1 0.248713 0.378317 0.374852 0.0648947 -0.0378953 -0.0593819
315 1 0.312854 0.437198 0.437177 0.0198242 0.0284006 -0.00063177
316 1 0.25144 0.376721 0.501255 -0.0473608 -0.0885756 -0.0145467
317 1 0.313105 0.438295 0.563277 -0.00382959 -0.0431127 -0.0440263
318 1 0.250133 0.375152 0.624951 0.0175499 0.0163305 0.0549972
319 1 0.3126 0.437525 0.687616 0.00134066 -0.00146816 -0.00152785
320 1 0.249997 0.375 0.749971 0.000402621 0.000439912 0.00191229
321 1 0.312545 0.437551 0.812447 0.000796038 0.000396942 -0.00274189
322 1 0.249885 0.375248 0.874842 0.000467323 0.00123372 -0.0031115
323 1 0.312733 0.437974 0.9371 0.000648 0.0046913 -0.0167707
324 1 0.250018 0.501271 0.998781 -0.00295239 -0.0262057 0.0206072
325 1 0.312705 0.563076 0.0618393 0.00701602 0.0235137 -0.0049663
326 1 0.249482 0.501518 0.123526 0.00254548 -0.029016 -0.0293837
327 1 0.312672 0.562722 0.186917 0.000731448 0.0263904 -0.00577289
328 1 0.250125 0.500521 0.249189 -0.00846977 0.0141752 -0.00424369
329 1 0.312635 0.562364 0.312284 0.000310198 0.0181335 0.00143213
330 1 0.24976 0.500259 0.374958 0.000419977 -0.0163995 0.000371388
331 1 0.312588 0.562399 0.437445 -0.00115779 0.00313567 -0.00255701
332 1 0.250143 0.499906 0.499963 0.0109825 0.0303544 0.0141237
333 1 0.312617 0.562541 0.562514 0.00215241 -0.000951097 -0.00291923
334 1 0.250251 0.500432 0.625419 -0.00300861 0.0048587 0.00571416
335 1 0.312663 0.562672 0.687642 -0.00113195 0.00137134 0.000549981
336 1 0.250072 0.500118 0.749997 0.00070041 0.00204831 0.000368425
337 1 0.312618 0.562695 0.812326 0.000317633 0.00105445 -0.000794754
338 1 0.250062 0.500387 0.874619 -0.000347883 0.00174294 -0.00274614
339 1 0.312693 0.563136 0.936858 -0.00167664 -0.000223822 0.00109189
340 1 0.249991 0.625448 0.999549 0.00248417 0.00244739 -0.00250353
341 1 0.312551 0.687631 0.0623211 0.00165212 0.00330767 -0.000611053
342 1 0.249902 0.625233 0.124682 0.00257515 0.00396327 -0.00485325
343 1 0.312569 0.687523 0.187364 -0.00101066 0.00063828 -0.000205284
344 1 0.250057 0.624965 0.249766 -0.00109919 0.0036331 0.000299217
345 1 0.312579 0.687421 0.312401 -0.000656188 -0.000242442 -0.000619598
346 1 0.250043 0.624887 0.374888 -0.000789693 -0.00181632 -0.00209446
347 1 0.312549 0.687404 0.437461 -0.000332253 -0.00134278 -0.00151062
348 1 0.250056 0.62492 0.499962 0.00143004 0.000178004 -0.00123097
349 1 0.312541 0.687402 0.562524 0.000393827 -0.00111611 -0.000935822
350 1 0.250067 0.62503 0.625028 0.00186129 0.000292088 -0.000276398
351 1 0.312558 0.687477 0.687505 0.00119365 -0.000152348 -0.000400758
352 1 0.250061 0.625149 0.749941 0.000617941 0.00157417 -0.000182729
353 1 0.312588 0.68763 0.812318 0.000526536 0.000931601 -0.000234269
354 1 0.250035 0.625374 0.874605 0.000692039 -0.000784021 0.000319922
355 1 0.312587 0.687709 0.937218 0.00131737 0.000486645 -0.000262872
356 1 0.250014 0.750019 0.999801 0.000944938 -0.000157005 -0.00124036
357 1 0.312603 0.812375 0.0623547 0.00153364 0.00241192 0.00130913
358 1 0.250009 0.75005 0.124913 0.000804933 -0.00203458 -0.00037904
359 1 0.312533 0.81256 0.187506 0.000308566 -0.000678238 -0.00169055
360 1 0.250066 0.750016 0.249924 -0.000993322 -0.000680112 -0.000238716
361 1 0.312629 0.812416 0.312498 -0.00217042 0.00701375 -0.00184246
362 1 0.25007 0.749948 0.37496 -0.00101726 -0.00148776 -0.000699557
363 1 0.3126 0.812307 0.437627 -0.000389088 -0.00437076 0.00365255
364 1 0.250032 0.749852 0.500029 -0.000288305 -0.000785018 0.000235053
365 1 0.312546 0.812157 0.56276 -0.000145603 -0.00181546 0.000863788
366 1 0.249999 0.749853 0.625063 0.00059368 -0.0012439 -2.05026e-05
367 1 0.312534 0.812296 0.687607 0.000158857 -0.000314695 0.000776975
368 1 0.250006 0.749976 0.749928 0.00109283 0.000514599 -0.000408741
369 1 0.31256 0.812413 0.812416 0.000661154 0.000721719 0.000669784
370 1 0.250023 0.750029 0.874768 0.00112568 0.00027349 -0.00146298
371 1 0.31264 0.812331 0.937228 -0.00101279 0.000101997 -0.000726601
372 1 0.25016 0.874519 0.999473 -0.00165038 -0.00464272 -0.00403105
373 1 0.31307 0.936646 0.061607 -0.0041696 0.0398066 0.0392313
374 1 0.250118 0.87501 0.124739 0.0172175 -0.0539487 -0.0157246
375 1 0.312464 0.937546 0.187589 -0.00240017 0.0069444 0.00137347
376 1 0.250058 0.875338 0.249906 -0.00521772 -0.0869289 -0.00395006
377 1 0.312831 0.935875 0.312647 0.00804 0.212892 0.00903488
378 1 0.250005 0.874945 0.3753 -0.0190255 -0.041918 0.0133829
379 1 0.312769 0.936459 0.438665 0.0163485 -0.00203756 -0.0209329
380 1 0.249916 0.874471 0.500465 0.00173443 -0.00210052 0.00235073
381 1 0.312669 0.936759 0.563194 -0.00159736 -0.00556146 0.00528029
382 1 0.249936 0.874642 0.625271 -0.000756475 -0.00119676 0.00117243
383 1 0.31254 0.937139 0.687791 -0.000355447 -0.000574611 0.00133917
384 1 0.249979 0.874803 0.750034 0.000128642 0.000297717 0.00169326
385 1 0.312545 0.937335 0.812474 -0.000573317 0.00183073 0.00257158
386 1 0.250022 0.874836 0.874822 0.000980286 0.00145815 0.00175982
387 1 0.312606 0.937312 0.937297 0.000675172 0.0054831 0.00416912
388 1 0.375059 0.999948 0.999981 -0.00460247 0.0112904 -0.00280779
389 1 0.437435 0.0624683 0.0626722 -0.0208262 0.0322208 0.0473279
390 1 0.374355 0.000224346 0.125367 -0.0157598 -0.000365356 0.0122058
391 1 0.439358 0.0606731 0.185772 0.0204295 -0.0050393 -0.00381142
392 1 0.377336 0.998009 0.248888 -0.056527 0.0213463 0.0345692
393 1 0.439504 0.0606108 0.315147 0.0690409 -0.0741034 -0.0148493
394 1 0.377613 0.997027 0.3775 -0.0291728 -0.00564914 -0.0275115
395 1 0.437834 0.0621642 0.437837 0.0190982 -0.0190982 0.0190977
396 1 0.37615 0.998469 0.501499 0.00995037 0.0220501 -0.0226336
397 1 0.438792 0.0611708 0.563922 -0.0105864 0.0107904 0.00929549
398 1 0.375337 0.999289 0.625705 0.000146154 0.000530024 0.000820231
399 1 0.437753 0.0622177 0.68785 0.00170257 -0.00218125 0.00602737
400 1 0.375078 0.999813 0.750145 -0.000788863 0.000249671 0.00175384
401 1 0.437552 0.0624075 0.812567 -0.00234361 0.00146603 0.00229174
402 1 0.375055 0.999886 0.874952 -0.00344996 0.00398044 0.00394392
403 1 0.437555 0.0623755 0.93747 -0.00629514 0.00488884 0.00471588
404 1 0.374976 0.124765 0.999995 -0.00665154 0.00860501 0.00576828
405 1 0.437174 0.187145 0.0628032 -0.000631713 -0.0198241 -0.0284006
406 1 0.374299 0.125377 0.126443 0.0762069 -0.025374 -0.0404621
407 1 0.434616 0.189643 0.190964 0.108007 0.0905412 -0.183987
408 1 0.383184 0.117145 0.250046 -0.070991 0.0476451 -0.0524862
409 1 0.449912 0.184212 0.316128 0.0762277 -0.0917212 0.0814456
410 1 0.372878 0.12712 0.372881 0.148154 -0.148154 0.148155
411 1 0.439388 0.184854 0.439507 0.0741044 0.0148487 0.0690405
412 1 0.377497 0.122385 0.502974 -0.027512 0.0291739 0.0056486
413 1 0.438663 0.18723 0.563542 -0.0209323 -0.0163481 0.00203837
414 1 0.375365 0.124553 0.625342 0.0165122 -0.0168987 0.0270304
415 1 0.437624 0.187399 0.687694 0.00365236 0.000389007 0.00437056
416 1 0.375024 0.12489 0.750095 -0.00105194 0.000431389 0.00169862
417 1 0.437459 0.18745 0.812597 -0.00151062 0.000332245 0.00134262
418 1 0.374943 0.124909 0.875046 -0.00358615 0.00346661 0.00552432
419 1 0.437442 0.187411 0.937602 -0.00255715 0.00115786 -0.00313553
420 1 0.374955 0.250238 0.999742 0.000370901 -0.000420041 0.0163998
421 1 0.438216 0.313155 0.0622569 0.0622649 0.0282293 -0.0525844
422 1 0.374849 0.251285 0.121684 -0.0593826 -0.0648941 0.0378934
423 1 0.450005 0.318436 0.181361 0.151776 0.00336161 0.0207046
424 1 0.434914 0.309596 0.310988 0.0886616 0.142223 -0.167711
425 1 0.382853 0.249955 0.383187 -0.0476469 0.0524859 -0.0709914
426 1 0.439325 0.314229 0.43936 0.00503947 0.00381122 0.0204285
427 1 0.377079 0.250953 0.501981 -0.0532232 -0.027996 -0.0348138
428 1 0.438397 0.313123 0.563241 -0.0255544 0.0090065 -0.00366241
429 1 0.375297 0.249994 0.625056 0.0133824 0.0190256 0.0419177
430 1 0.437563 0.312507 0.687653 -0.000538974 0.0024607 0.00145181
431 1 0.374957 0.249928 0.750053 -0.000699715 0.00101729 0.00148773
432 1 0.437449 0.312436 0.812587 -0.000383382 1.34585e-05 -0.000149848
433 1 0.374886 0.249955 0.875114 -0.00209445 0.000789679 0.00181633
434 1 0.437576 0.312581 0.937531 0.00195426 0.000437442 -0.0071648
435 1 0.375057 0.375148 0.999948 0.0183456 0.0172293 -0.0525335
436 1 0.437487 0.438125 0.0617534 -0.0153261 -0.0252813 0.0252455
437 1 0.375248 0.373974 0.12558 -0.0295255 -0.0357946 0.0424849
438 1 0.438993 0.438191 0.186184 -0.0131515 0.0118417 -0.0107235
439 1 0.374823 0.378848 0.247605 -0.00225747 -0.0382369 0.157476
440 1 0.437368 0.437296 0.312561 -0.00522851 0.0235522 0.0118464
441 1 0.374621 0.373558 0.374301 0.025375 0.0404601 0.0762054
442 1 0.43753 0.437329 0.437438 -0.0322202 -0.0473274 -0.020826
443 1 0.374145 0.374386 0.499552 0.00177675 -0.0057216 0.0095751
444 1 0.437249 0.437358 0.562453 0.00505351 0.00462638 0.00677561
445 1 0.374895 0.374813 0.624953 0.00498644 0.00612903 0.0223639
446 1 0.437425 0.437407 0.687559 0.00149196 0.00159794 0.00451147
447 1 0.374929 0.374871 0.750031 5.66995e-05 0.000975588 0.00097669
448 1 0.437483 0.437425 0.812484 0.00080399 0.00162865 -0.000599473