ITEM: TIMESTEP
0
ITEM: NUMBER OF ATOMS
1026
ITEM: BOX BOUNDS pp pp pp
0.0000000000000000e+00 2.2857118000000000e+01
0.0000000000000000e+00 2.2857118000000000e+01
0.0000000000000000e+00 2.2857118000000000e+01
ITEM: ATOMS id type xs ys zs fx fy fz
1 1 0.23198 0.224287 0.128766 -0.122216 -0.116111 -0.151292
2 1 0.286906 0.300842 0.153749 0.0211661 -0.209574 0.0837801
3 1 0.220615 0.141228 0.211146 0.0782289 0.125719 0.123426
4 1 0.153746 0.213092 0.19916 0.0837782 -0.0211568 0.209573
5 1 0.35877 0.288856 0.220618 -0.12572 -0.123426 0.0782271
6 1 0.275711 0.371235 0.231983 0.116119 0.151289 -0.122215
7 1 0.285872 0.141585 0.284301 -0.176868 0.15754 -0.0918962
8 1 0.358414 0.2157 0.285875 -0.15754 0.0918977 -0.176869
9 1 0.128763 0.268018 0.275714 -0.151293 0.122211 0.116112
10 1 0.199157 0.346253 0.286909 0.209571 -0.0837744 0.0211524
11 1 0.284298 0.214126 0.358416 -0.0918966 0.176867 -0.15754
12 1 0.211143 0.279383 0.358773 0.123427 -0.0782317 -0.125719
13 1 0.999757 0.999944 0.999946 -0.00154957 -0.00356415 -0.0041107
14 1 0.0627762 0.0630144 0.0630026 -0.0228457 -0.0180814 -0.0451514
15 1 0.999553 0.999425 0.124731 0.0390353 0.0419207 -0.0061036
16 1 0.0627428 0.0625765 0.186075 -0.0770255 -0.0912765 -0.0306865
17 1 4.73102e-05 0.999954 0.249874 -0.00723669 0.00737079 -0.00263831
18 1 0.0618651 0.0620512 0.31348 0.0459005 -0.00362752 -0.00615615
19 1 0.999856 0.999742 0.375274 -0.0236199 -0.00852563 0.00692483
20 1 0.0618627 0.0619315 0.438243 0.0896044 0.0297055 -0.0646905
21 1 0.999712 0.999599 0.50036 0.00926226 6.21664e-05 -0.00448164
22 1 0.062597 0.0624667 0.562606 -0.00308954 -0.00311593 0.00390552
23 1 0.999934 0.99986 0.625076 -0.00105815 -0.00196093 0.0030297
24 1 0.0624095 0.0623804 0.687562 -0.000331954 -0.000819197 0.00329824
25 1 0.999808 0.99981 0.749875 -0.000974383 -0.00146379 0.000844664
26 1 0.0622244 0.0622424 0.812236 -0.00192726 -0.00226257 -0.00337069
27 1 0.99946 0.999515 0.874451 0.00208768 0.000572946 -0.00159078
28 1 0.0614788 0.0614836 0.936459 0.00573288 0.00403881 -0.0111838
29 1 0.998699 0.12405 0.998583 0.0570125 -0.00268092 0.0635137
30 1 0.0606485 0.18513 0.0605221 0.0651107 0.0445255 -0.0158365
31 1 0.999914 0.124866 0.124876 -0.00425863 -0.0249482 -0.0156652
32 1 0.0573228 0.188712 0.188437 0.0223592 -0.0635105 0.0115271
33 1 0.998815 0.123828 0.250396 0.0473287 0.0498975 0.0126324
34 1 0.0627044 0.187755 0.311491 -0.0770591 0.0887044 0.0508993
35 1 0.999644 0.124759 0.375119 0.00359846 0.0271496 -0.008437
36 1 0.0607568 0.185686 0.439123 -0.00239474 -0.00692243 0.0369408
37 1 0.999297 0.124254 0.500855 -0.0122687 -0.00257612 0.00302438
38 1 0.061566 0.186844 0.563323 0.0451291 -0.0100969 -0.0261652
39 1 0.999598 0.124617 0.625448 0.00530645 -0.00172081 -0.00498448
40 1 0.062367 0.187407 0.687624 0.00112745 -0.000908082 -0.00201147
41 1 0.999824 0.124912 0.749991 -0.000398523 -0.00178682 -0.000904239
42 1 0.0623654 0.187503 0.812424 -0.00187796 -0.000187773 -0.00528224
43 1 0.999499 0.124777 0.874488 -0.00121911 -0.00129637 -0.00218158
44 1 0.0616144 0.187414 0.93678 0.0135168 -0.0157997 -0.0233983
45 1 0.999077 0.25 0.99875 0.0292744 -0.00388246 0.0529612
46 1 0.060425 0.314591 0.0601333 0.0917105 -0.0404276 -0.0170256
47 1 0.99954 0.250312 0.123167 -0.0234856 0.0220682 0.053022
48 1 0.0654209 0.307843 0.187772 -0.0960305 0.110924 -0.0366721
49 1 0.999324 0.25085 0.251511 0.0562475 0.00491198 -0.0481489
50 1 0.0526162 0.316135 0.316178 -0.0133705 0.0264363 0.0638106
51 1 0.99775 0.249244 0.377273 0.071177 -0.00486858 -0.055644
52 1 0.0607928 0.314381 0.439651 -0.0367786 -0.00693249 -0.011932
53 1 0.999083 0.249898 0.501039 0.0170312 -0.000466509 -0.0261912
54 1 0.0617112 0.312551 0.563194 0.011548 0.00954815 -0.00341402
55 1 0.99957 0.249934 0.625432 -0.00239848 0.00206574 0.00258454
56 1 0.0623861 0.31254 0.687573 -0.00124487 -0.000564774 0.000646028
57 1 0.999843 0.25003 0.749987 -0.000158952 -0.000379174 0.000145523
58 1 0.0623516 0.312655 0.812376 0.00204039 0.00122646 0.000191262
59 1 0.999525 0.250094 0.874498 -0.00346736 -0.00244123 -0.00181509
60 1 0.0614114 0.31328 0.936524 0.0458329 0.0130887 0.0205121
61 1 0.998916 0.375934 0.998882 -0.00786729 -0.0038875 -0.00111958
62 1 0.0610725 0.438926 0.0610753 0.0722623 -0.072263 0.0722618
63 1 0.999824 0.37457 0.12494 0.0161988 0.0326923 0.0328687
64 1 0.0601305 0.439573 0.185411 -0.0170257 -0.0917102 0.0404277
65 1 0.99769 0.376217 0.24851 0.102093 0.034373 0.0493059
66 1 0.0605193 0.43935 0.314871 -0.0158357 -0.065112 -0.0445258
67 1 0.997557 0.376928 0.377181 -0.0141726 0.0180403 0.0149713
68 1 0.0629998 0.437222 0.436987 -0.0451492 0.0228434 0.018079
69 1 0.998796 0.376039 0.501267 0.040388 0.00739379 -0.0327956
70 1 0.0617284 0.438391 0.563313 0.00778546 -0.00599889 0.00770824
71 1 0.999581 0.375276 0.625412 -0.00123451 0.000459359 0.00308671
72 1 0.0623386 0.437717 0.687669 -0.000257058 0.000487743 0.000577107
73 1 0.999822 0.375149 0.749954 -6.46393e-05 0.00107186 0.00119948
74 1 0.0624114 0.437647 0.812376 0.000366255 0.00038207 -0.00202545
75 1 0.999455 0.375454 0.874432 0.00250553 0.00163251 0.00251161
76 1 0.0622384 0.437789 0.937058 0.000774346 -0.0012187 0.00278736
77 1 0.999145 0.500854 0.999147 0.00872857 -0.00872864 0.00872844
78 1 0.0622088 0.562943 0.0622412 0.00121888 -0.00278747 0.000774439
79 1 0.998879 0.501083 0.124067 -0.00111912 0.00786697 0.00388773
80 1 0.0616994 0.563021 0.187214 0.00613813 0.00155316 -0.0110996
81 1 0.998747 0.500921 0.250001 0.0529616 -0.0292747 0.00388236
82 1 0.0620534 0.562665 0.312758 -0.0222204 0.0323435 0.00642231
83 1 0.99858 0.5013 0.375951 0.0635126 -0.0570112 0.00268098
84 1 0.0624724 0.562561 0.437638 -0.00600381 0.0253822 0.00323842
85 1 0.999944 0.500241 0.500057 -0.00411054 0.00154961 0.00356409
86 1 0.0623207 0.562782 0.562751 -0.00514024 -0.000454837 0.000345433
87 1 0.999642 0.500483 0.625411 0.00327438 -0.00228921 -0.000348567
88 1 0.0623985 0.562729 0.687607 0.000410035 -0.00030396 0.000351732
89 1 0.999837 0.500217 0.749994 -0.000234357 0.000553064 -0.000400063
90 1 0.062311 0.562756 0.812265 -0.000618357 -0.000660667 0.0010474
91 1 0.999701 0.500301 0.87465 0.000269437 -0.000536047 -0.00159707
92 1 0.0619836 0.563119 0.936856 0.00466169 -0.00399565 0.00225708
93 1 0.999698 0.625351 0.999703 0.000536166 0.00159701 0.00026953
94 1 0.0623517 0.687625 0.0624142 -0.000381982 0.00202533 0.000366306
95 1 0.999613 0.625395 0.12475 0.000675166 0.000128559 -0.00307094
96 1 0.0623776 0.687582 0.187477 0.000986098 -0.00188981 -9.13308e-05
97 1 0.999698 0.625257 0.250057 -0.000854812 0.00188557 8.74888e-05
98 1 0.0624735 0.687504 0.312526 3.3529e-06 0.000252784 0.00078994
99 1 0.999797 0.625227 0.375188 0.000216087 -0.000992374 0.00131741
100 1 0.0625673 0.687499 0.437457 -0.000456758 0.00107538 0.000239767
101 1 0.999983 0.625154 0.500075 -0.000180452 0.00246622 0.000849652
102 1 0.062458 0.687542 0.562543 -0.000780099 -0.000186711 -0.000545869
103 1 0.999871 0.625174 0.625085 -0.00102801 -0.000694851 -0.00019505
104 1 0.0624084 0.687545 0.687458 0.000436823 -0.000146922 0.000145632
105 1 0.999826 0.625197 0.74991 0.000466968 -0.000584968 0.000627842
106 1 0.0623099 0.687657 0.812266 0.000848887 -0.000806111 0.000328252
107 1 0.999673 0.625344 0.874628 0.00185045 -0.00174857 0.00106964
108 1 0.0621983 0.687782 0.937159 0.000133036 -0.00180657 0.00105414
109 1 0.999781 0.750007 0.99984 -0.000553016 0.000400018 -0.000234313
110 1 0.0622812 0.812332 0.0623414 -0.00048769 -0.000577093 -0.000257015
111 1 0.999865 0.750037 0.124969 0.000328195 -0.000837977 -0.000527024
112 1 0.06247 0.812455 0.187532 -0.00101129 -9.22193e-05 7.27302e-05
113 1 0.999945 0.750005 0.250041 8.50583e-05 0.000389156 -0.000325264
114 1 0.0625136 0.81243 0.312558 0.00252572 0.00327572 -0.000201872
115 1 0.999986 0.749975 0.375048 0.00104003 0.000691088 0.00104096
116 1 0.0626167 0.812482 0.43739 -0.00096313 -0.00476929 0.00105573
117 1 5.47285e-05 0.749999 0.49995 -0.00071169 -0.00124106 0.000817435
118 1 0.0623744 0.812316 0.562565 0.000204359 0.00202654 -0.00195311
119 1 0.999903 0.74996 0.624991 0.000166162 0.000164449 -0.000506457
120 1 0.0623617 0.812363 0.687449 0.000361015 -0.000291133 -0.000201831
121 1 0.999819 0.750003 0.749849 0.000765984 -0.000414075 -0.000146529
122 1 0.0622819 0.81237 0.812285 0.000993859 -0.000826916 -0.000625882
123 1 0.999722 0.750048 0.874732 0.000729072 -0.000997073 0.000483719
124 1 0.0622237 0.812329 0.937215 0.000153034 -0.00149448 -0.000610706
125 1 0.999516 0.87459 0.999645 0.00228908 0.000348309 0.00327422
126 1 0.0616075 0.936688 0.0617312 0.00599861 -0.00770876 0.00778514
127 1 0.999686 0.874686 0.124928 0.000388345 -0.000596004 0.000208408
128 1 0.0619607 0.936986 0.187549 0.0232583 0.0167748 -0.00173534
129 1 0.999769 0.874752 0.250084 -0.00183337 -0.0039877 -0.00376336
130 1 0.0618151 0.936849 0.313005 0.0601375 0.0635514 -0.00458914
131 1 0.999777 0.874704 0.375244 0.00629702 0.0085352 0.000410524
132 1 0.0627986 0.937647 0.437192 0.000771209 0.000611587 0.000795199
133 1 8.05236e-05 0.874962 0.499907 -0.00116894 -0.00187444 0.00113832
134 1 0.0623215 0.937223 0.562665 -0.000666822 -0.00209559 0.00339758
135 1 0.999889 0.874835 0.62501 -0.000164444 -0.000997224 0.00103255
136 1 0.062273 0.937218 0.687583 0.000795806 0.000673755 -0.0019879
137 1 0.999764 0.874783 0.749862 0.000625058 -0.000323857 -0.000603081
138 1 0.0622021 0.937142 0.812204 0.000229343 -0.00122925 -0.00135437
139 1 0.999585 0.874693 0.874658 9.43185e-05 0.00141371 0.00216901
140 1 0.0618285 0.936854 0.936879 -0.00186994 0.00487215 0.00627763
141 1 0.123959 0.998734 0.998798 -0.00739379 0.0327965 0.0403893
142 1 0.185618 0.0603499 0.0607956 0.00693235 0.0119308 -0.0367791
143 1 0.123255 0.998052 0.123258 0.0199327 -0.00475295 0.0168232
144 1 0.185142 0.052344 0.185063 -0.0564352 0.0827842 -0.0828245
145 1 0.123803 0.999359 0.251177 0.0420864 -0.0401102 -0.00171659
146 1 0.192017 0.0665293 0.307901 -0.199174 -0.191871 0.130571
147 1 0.126085 0.00100543 0.373799 -0.038899 -0.0590473 0.0551345
148 1 0.18629 0.0610867 0.438791 0.00193786 -0.00721461 -0.0423341
149 1 0.124553 0.999497 0.500404 -0.00640768 -0.0154403 0.0175475
150 1 0.186941 0.0614365 0.56331 0.000373035 0.0390849 -0.0287619
151 1 0.124664 0.999532 0.625395 0.000888496 0.00501072 -0.00626985
152 1 0.187388 0.0622713 0.687635 7.98816e-05 0.000976187 -0.00198776
153 1 0.124846 0.999752 0.74996 -0.000547958 -0.000949147 -0.00104025
154 1 0.187381 0.0622372 0.81237 0.000941832 -0.00371207 -0.00528538
155 1 0.12463 0.999376 0.874437 0.000223501 -0.00158682 -0.00224199
156 1 0.187205 0.0612444 0.936585 -0.00924723 0.00868122 -0.0169892
157 1 0.12307 0.12282 0.997559 -0.0180402 -0.014971 -0.0141723
158 1 0.183863 0.183823 0.0526189 -0.026441 -0.0638085 -0.0133681
159 1 0.12991 0.12827 0.12772 -0.0477494 0.0458344 -0.0586172
160 1 0.120469 0.122087 0.249708 0.104667 0.0823352 -0.0858229
161 1 0.185586 0.182816 0.311519 0.193191 0.113676 0.0118801
162 1 0.124999 0.124792 0.375943 -0.0287586 -0.110976 -0.0267303
163 1 0.190847 0.189855 0.433661 -0.142356 -0.0210897 0.208662
164 1 0.125749 0.125506 0.499691 -0.019219 -0.00529012 0.02005
165 1 0.187485 0.187253 0.562526 -0.0110404 -0.0093975 0.0020017
166 1 0.124971 0.124887 0.625047 -0.00513665 -0.00447757 0.0230889
167 1 0.187481 0.187422 0.687474 -0.00171744 -0.00152418 -0.000255504
168 1 0.124902 0.124895 0.74998 -0.000424591 -0.000150865 -0.000766192
169 1 0.187364 0.187374 0.81243 -0.000333619 0.000752487 0.00428296
170 1 0.124548 0.124557 0.874679 -0.0177087 -0.0179182 -0.034445
171 1 0.186857 0.186782 0.936072 -0.00480199 -0.0176056 0.0607168
172 1 0.123782 0.251491 0.997693 -0.0343728 -0.0493065 0.102092
173 1 0.192155 0.312229 0.0654237 -0.110926 0.0366739 -0.0960349
174 1 0.120754 0.250736 0.113115 0.0642523 0.103256 -0.0119745
175 1 0.184337 0.315661 0.18434 0.00747168 -0.00747387 0.00747587
176 1 0.116625 0.249155 0.381088 -0.0402262 -0.0179254 -0.077509
177 1 0.18506 0.314857 0.447657 -0.0828242 0.0564344 -0.0827836
178 1 0.123423 0.248546 0.501207 0.0414307 0.0202657 -0.00139643
179 1 0.187129 0.312744 0.563856 -0.00888594 0.00338487 -0.159505
180 1 0.12476 0.249819 0.624929 -0.018983 -0.0138891 0.0556385
181 1 0.187431 0.3125 0.687552 0.0009539 -0.00148998 -0.00865916
182 1 0.12494 0.250007 0.750005 -0.000402947 -0.000152929 -7.47674e-05
183 1 0.18749 0.312509 0.812612 0.00122743 0.00228802 -0.00393306
184 1 0.124802 0.250219 0.875011 -0.0195644 0.0144932 -0.0426121
185 1 0.187759 0.312775 0.937867 0.0136078 0.0216748 -0.0476519
186 1 0.125428 0.375061 0.999827 -0.0326929 -0.0328677 0.0161987
187 1 0.185408 0.439868 0.0604278 0.0404276 0.0170248 0.0917094
188 1 0.123443 0.376555 0.123446 0.033151 -0.0331528 0.0331538
189 1 0.187769 0.434577 0.192158 -0.0366694 0.0960271 -0.110919
190 1 0.113112 0.379245 0.249265 -0.0119756 -0.0642513 -0.103257
191 1 0.188434 0.442675 0.311289 0.0115268 -0.0223581 0.0635112
192 1 0.127717 0.370088 0.371731 -0.058616 0.0477467 -0.0458367
193 1 0.186072 0.437256 0.437425 -0.0306868 0.0770245 0.0912758
194 1 0.123256 0.376744 0.501949 0.0168237 -0.0199333 0.00475413
195 1 0.187546 0.438038 0.563015 -0.00173544 -0.023259 -0.0167758
196 1 0.124683 0.375293 0.625173 -0.0137256 0.0143867 0.0342172
197 1 0.187529 0.437528 0.687546 7.27356e-05 0.00101131 9.22233e-05
198 1 0.124964 0.375063 0.750017 0.000386042 -0.000216279 -0.000439512
199 1 0.187474 0.437621 0.812419 -9.13214e-05 -0.00098605 0.00188982
200 1 0.125025 0.375139 0.874999 -0.00338427 0.00107923 -0.0184399
201 1 0.187211 0.438299 0.93698 -0.0110995 -0.00613866 -0.00155244
202 1 0.124064 0.501119 0.998918 0.00388765 0.00111946 -0.00786702
203 1 0.186718 0.563477 0.0614142 -0.0130885 -0.0205111 0.0458316
204 1 0.124937 0.500174 0.125431 0.0328693 -0.0161999 -0.0326909
205 1 0.187223 0.562134 0.187762 -0.0216746 0.0476519 0.013608
206 1 0.123164 0.500458 0.249689 0.0530208 0.0234853 -0.0220687
207 1 0.187572 0.562613 0.312192 -0.0125965 -0.00460378 0.00232594
208 1 0.124873 0.500084 0.375135 -0.0156655 0.00426083 0.0249487
209 1 0.187268 0.562534 0.437716 -0.00143519 0.0293928 0.0133608
210 1 0.124728 0.500446 0.500576 -0.0061037 -0.0390336 -0.041919
211 1 0.187538 0.562645 0.562664 0.00183746 0.0014484 0.00126985
212 1 0.124925 0.500312 0.625315 0.000208394 -0.000388453 0.000595912
213 1 0.187516 0.562637 0.687596 -0.000158124 0.000123962 -0.000266963
214 1 0.124966 0.500134 0.749964 -0.000527035 -0.000328173 0.000837982
215 1 0.187464 0.562687 0.812325 -0.000336449 0.000347722 -0.000729193
216 1 0.124747 0.500386 0.874606 -0.00307095 -0.000675114 -0.00012855
217 1 0.187259 0.563128 0.936877 -6.24448e-07 -0.000685646 6.27451e-05
218 1 0.124544 0.625569 0.999458 -0.00163246 -0.00251155 0.00250546
219 1 0.187343 0.687626 0.0623544 -0.00122646 -0.000191254 0.00204038
220 1 0.124859 0.625002 0.125028 -0.00107907 0.0184393 -0.00338407
221 1 0.187489 0.687389 0.187493 -0.00228799 0.00393306 0.00122746
222 1 0.124775 0.624922 0.249975 -0.002213 0.0137899 -0.00512473
223 1 0.187568 0.68741 0.312386 0.000371625 -0.00028058 -0.000697598
224 1 0.125028 0.624883 0.374928 -0.00476979 0.015333 0.00537148
225 1 0.187504 0.68745 0.437463 -0.00101602 0.000713154 -0.000127404
226 1 0.124942 0.625105 0.500112 0.000711965 -0.00199174 -0.00170203
227 1 0.187489 0.687488 0.562543 0.000340052 -0.000117503 -5.65815e-05
228 1 0.124977 0.625087 0.625065 -0.000228751 0.000770873 0.000832304
229 1 0.187475 0.687498 0.687482 -2.81225e-05 -0.000112802 -0.000179309
230 1 0.124934 0.625139 0.749924 -7.50008e-05 6.85719e-05 -0.000109725
231 1 0.18743 0.687624 0.812294 0.000260911 -0.000563976 -4.8097e-05
232 1 0.124787 0.625352 0.874616 0.00107608 -0.00142097 0.000537513
233 1 0.187364 0.687743 0.937189 0.000548288 0.000811175 -0.000969816
234 1 0.12485 0.750047 0.999825 -0.00107181 -0.00119949 -6.4635e-05
235 1 0.187459 0.812428 0.0623889 0.000564765 -0.00064604 -0.0012448
236 1 0.124935 0.749984 0.124966 0.0002163 0.000439484 0.000386078
237 1 0.187498 0.812449 0.187434 0.00148993 0.00865919 0.000953896
238 1 0.125028 0.749997 0.249994 0.000326824 -0.00122581 0.000382551
239 1 0.187639 0.812568 0.312422 -0.00155021 0.000556493 0.000630465
240 1 0.125108 0.74997 0.37491 -0.000433718 -0.000202762 -0.000137917
241 1 0.187483 0.812391 0.437525 -0.000421954 0.0014685 -0.00240583
242 1 0.124989 0.749921 0.499999 -0.00107032 0.000383474 -0.00127326
243 1 0.187424 0.812283 0.562619 0.00123929 -0.00104178 0.000478186
244 1 0.124934 0.749914 0.625014 0.000546047 -0.000521064 0.000340329
245 1 0.187418 0.812323 0.687509 0.000410132 -0.0002958 -0.000639249
246 1 0.124889 0.749969 0.749876 0.000507582 -0.000366703 -0.000330767
247 1 0.187413 0.812359 0.812322 0.000531063 -0.000880036 -0.000823524
248 1 0.124834 0.750032 0.874745 0.000493429 -0.000353164 -0.000642874
249 1 0.187399 0.812323 0.937234 0.000275099 -0.000531422 -0.00101497
250 1 0.124722 0.874589 0.999583 -0.000459364 -0.00308677 -0.00123455
251 1 0.187447 0.936807 0.061714 -0.00954836 0.00341296 0.0115475
252 1 0.124705 0.874828 0.124686 -0.0143867 -0.0342172 -0.0137255
253 1 0.187254 0.936145 0.187132 -0.00338501 0.159503 -0.00888587
254 1 0.124931 0.875163 0.250119 -0.0178372 -0.0557273 0.0143293
255 1 0.187811 0.937764 0.312301 -0.0175784 -0.00728026 0.00222271
256 1 0.125211 0.875176 0.374857 -0.00624107 -0.0268663 0.00593367
257 1 0.187015 0.936823 0.438317 -0.00796333 0.0395931 -0.0565436
258 1 0.124741 0.874624 0.500264 -0.000812227 0.00851611 -0.00822815
259 1 0.187363 0.937115 0.5628 -0.00205664 -0.00341166 0.00330728
260 1 0.12486 0.874753 0.625106 5.28216e-05 -0.000516293 -4.05154e-05
261 1 0.187384 0.937191 0.687638 0.00137631 -0.00096265 0.000233038
262 1 0.12485 0.874762 0.749908 0.000803279 -0.0012294 -0.000310336
263 1 0.187414 0.937163 0.812269 -5.43605e-06 -0.0019631 -0.00126516
264 1 0.124773 0.874683 0.874676 0.0011039 -0.00158364 -0.00148465
265 1 0.187335 0.936898 0.936948 0.00183984 -0.00464415 -0.0053756
266 1 0.250101 0.998962 0.999086 0.000466429 0.0261921 0.0170321
267 1 0.314312 0.0608779 0.0607595 0.00692211 -0.03694 -0.00239322
268 1 0.251453 0.998795 0.123426 -0.0202652 0.0013968 0.0414302
269 1 0.310143 0.0663397 0.19085 0.0210914 -0.208664 -0.142355
270 1 0.250687 0.999272 0.249727 -0.00953286 -0.231236 -0.00792737
271 1 0.315666 0.0523161 0.315094 0.0472718 0.0324072 0.0664036
272 1 0.249102 0.998636 0.37636 0.0147022 0.0195794 -0.025845
273 1 0.315007 0.061276 0.438567 -0.00168491 -0.0771332 0.0781685
274 1 0.250218 0.999306 0.500588 -0.000347116 0.0209032 -0.0157091
275 1 0.312701 0.0614467 0.563235 0.00554803 0.0162975 0.00994234
276 1 0.249955 0.999477 0.625429 0.0025219 -0.000410512 0.000900056
277 1 0.312559 0.0622664 0.68763 -0.000565148 -0.00164645 0.00163379
278 1 0.249985 0.999764 0.749995 0.000818141 -0.000836837 -0.000659
279 1 0.312582 0.0622656 0.812379 0.00244009 -0.0011419 -0.00351593
280 1 0.250091 0.999452 0.874538 -0.000457963 -0.00151504 -0.00127358
281 1 0.313158 0.0615269 0.936765 0.0096125 -0.000384106 -0.0240452
282 1 0.250755 0.122728 0.997753 0.00486756 0.0556442 0.0711767
283 1 0.312243 0.18851 0.0627072 -0.088701 -0.0508996 -0.077061
284 1 0.250844 0.118913 0.116627 0.0179197 0.0775139 -0.0402194
285 1 0.317183 0.188482 0.185589 -0.113675 -0.0118804 0.193192
286 1 0.250265 0.117689 0.380945 -0.0264047 0.0534342 -0.0272622
287 1 0.315092 0.184333 0.447685 0.0664018 -0.0472704 -0.0324073
288 1 0.248976 0.123043 0.501406 0.0147471 0.0445327 -0.00986714
289 1 0.312882 0.186884 0.564 0.00189409 -0.00891747 -0.138004
290 1 0.249913 0.124572 0.625021 -0.014272 -0.0173423 0.0509913
291 1 0.312535 0.187338 0.687603 -0.00094624 0.00126605 -0.00953335
292 1 0.249962 0.12485 0.750003 0.000207819 -0.000890963 0.000140021
293 1 0.312428 0.187409 0.812562 0.00240911 6.27622e-05 -0.00242891
294 1 0.249996 0.124551 0.874847 0.0191929 -0.0161627 -0.0332296
295 1 0.312599 0.187196 0.937352 0.0113435 -0.00109077 -0.034741
296 1 0.249148 0.24849 0.999327 -0.00491335 0.048148 0.0562498
297 1 0.311287 0.311564 0.0573257 0.0635107 -0.0115263 0.0223597
298 1 0.250033 0.249965 0.250036 -0.0628417 0.0628449 -0.0628464
299 1 0.311516 0.314412 0.317185 0.0118794 -0.193191 -0.113674
300 1 0.307898 0.307982 0.433472 0.130571 0.199175 0.19187
301 1 0.249724 0.249311 0.500729 -0.00792761 0.00953275 0.231237
302 1 0.312298 0.312187 0.562237 0.00222255 0.0175784 0.00728053
303 1 0.249954 0.249835 0.624831 -0.000367596 0.000620463 0.0772227
304 1 0.312419 0.312359 0.687433 0.000630451 0.0015502 -0.00055648
305 1 0.249935 0.249922 0.750024 0.000183928 0.000366561 -0.000122941
306 1 0.312384 0.31243 0.812591 -0.000697561 -0.000371642 0.000280578
307 1 0.249836 0.249849 0.875196 0.00775393 0.00761903 -0.0495228
308 1 0.31219 0.312426 0.937388 0.00232591 0.0125966 0.00460362
309 1 0.249687 0.376834 0.999543 -0.0220688 -0.0530227 -0.0234848
310 1 0.314868 0.439479 0.0606513 -0.0445252 0.0158367 0.0651107
311 1 0.249262 0.386887 0.120756 -0.103256 0.0119744 0.0642505
312 1 0.316175 0.447382 0.183866 0.0638116 0.0133671 -0.0264386
313 1 0.311488 0.437294 0.312246 0.050902 0.0770624 -0.0887015
314 1 0.249705 0.379529 0.377914 -0.085823 -0.104666 -0.0823376
315 1 0.313478 0.438133 0.43795 -0.00615598 -0.0459 0.00362781
316 1 0.251175 0.376195 0.500642 -0.00171698 -0.0420866 0.0401107
317 1 0.313003 0.438183 0.563152 -0.00458916 -0.0601375 -0.0635513
318 1 0.250116 0.375067 0.624838 0.0143293 0.0178371 0.0557274
319 1 0.312555 0.437485 0.687571 -0.000201842 -0.00252576 -0.00327571
320 1 0.249991 0.37497 0.750004 0.000382564 -0.000326822 0.00122581
321 1 0.312523 0.437525 0.812497 0.000790014 -3.32211e-06 -0.000252803
322 1 0.249973 0.375224 0.875079 -0.00512471 0.00221318 -0.0137903
323 1 0.312755 0.437945 0.937336 0.00642236 0.0222206 -0.0323439
324 1 0.249998 0.501251 0.99908 0.00388234 -0.0529613 0.0292747
325 1 0.312584 0.563221 0.0616172 0.0157995 0.0233988 0.0135163
326 1 0.248507 0.502308 0.123784 0.049305 -0.102094 -0.0343725
327 1 0.313216 0.563929 0.18686 0.0176058 -0.0607142 -0.004802
328 1 0.251508 0.500675 0.249151 -0.0481466 -0.0562436 -0.00491356
329 1 0.312802 0.562649 0.312602 0.00109053 0.0347409 0.0113435
330 1 0.250393 0.501183 0.376173 0.012633 -0.0473295 -0.0498986
331 1 0.312856 0.562916 0.437981 -0.0028049 0.00250054 0.000784947
332 1 0.249871 0.499951 0.500047 -0.00263834 0.00723689 -0.00737072
333 1 0.312537 0.56256 0.562577 0.000950976 0.0022784 0.00152887
334 1 0.250082 0.500229 0.625249 -0.00376344 0.00183333 0.00398764
335 1 0.312577 0.562584 0.687593 -0.00158449 0.000818587 0.000795663
336 1 0.250038 0.500054 0.749996 -0.000325209 -8.5044e-05 -0.000389158
337 1 0.312577 0.562643 0.812354 -0.000746154 0.000386764 -0.000214714
338 1 0.250054 0.5003 0.874744 8.75965e-05 0.000854885 -0.00188565
339 1 0.312629 0.563123 0.936878 -0.00339192 0.00323951 -0.00151255
340 1 0.249905 0.625503 0.999528 0.00244116 0.00181501 -0.00346735
341 1 0.312496 0.687577 0.0623682 0.000187726 0.00528223 -0.00187792
342 1 0.249779 0.62499 0.124805 -0.0144932 0.0426113 -0.0195642
343 1 0.312624 0.687572 0.187366 -0.000752538 -0.00428279 -0.000333584
344 1 0.250149 0.624805 0.249839 -0.00761886 0.0495225 0.00775373
345 1 0.312589 0.687439 0.312431 -6.28152e-05 0.00242894 0.00240906
346 1 0.250021 0.624966 0.375033 0.00484574 0.0097649 0.00485627
347 1 0.312535 0.687514 0.43755 -0.000100205 0.000142396 0.000750411
348 1 0.249962 0.625034 0.500073 -0.00023368 0.00252486 0.000910506
349 1 0.312503 0.687463 0.562574 2.67554e-05 0.0012657 0.000507609
350 1 0.250039 0.625041 0.62507 0.000137321 -0.000654699 -0.00066176
351 1 0.312535 0.687468 0.687515 0.000299928 -0.000270544 -0.000333273
352 1 0.250021 0.625087 0.749949 -7.19972e-05 -5.03864e-06 -0.000281951
353 1 0.312547 0.687595 0.812322 6.93006e-05 -0.000458556 -0.000347273
354 1 0.249971 0.625316 0.874653 -6.02616e-05 -0.000805528 4.37541e-05
355 1 0.312538 0.687726 0.937199 0.000406177 0.000633286 -0.000978303
356 1 0.249968 0.750014 0.999846 0.000379166 -0.000145536 -0.00015893
357 1 0.312592 0.812377 0.0623698 0.000908016 0.00201149 0.0011275
358 1 0.249991 0.749996 0.124943 0.000152908 7.47403e-05 -0.000402898
359 1 0.312577 0.812528 0.187484 0.00152411 0.000255564 -0.0017174
360 1 0.250076 0.749977 0.249938 -0.000366596 0.000122965 0.000183932
361 1 0.31266 0.812398 0.312537 -0.00126613 0.00953348 -0.000946187
362 1 0.25005 0.749969 0.374964 -0.000666823 -0.00136928 -0.000236344
363 1 0.312563 0.812378 0.437602 -0.000940543 -0.00194408 0.00132777
364 1 0.249992 0.749906 0.500036 7.65086e-05 0.000344974 -0.000246013
365 1 0.312528 0.812227 0.562714 -9.23249e-06 0.000216614 -1.40865e-05
366 1 0.249981 0.749877 0.625062 0.000230116 -0.000155086 -0.000146556
367 1 0.312524 0.812296 0.687564 0.000501248 -0.000567228 -0.000732348
368 1 0.249984 0.749942 0.749914 0.000442564 -0.000546954 -0.000490536
369 1 0.312554 0.812349 0.812351 0.000495148 -0.000811964 -0.000661267
370 1 0.249976 0.750015 0.874773 0.000386307 -0.000546182 -0.000732299
371 1 0.312592 0.812317 0.937244 -0.000214519 -0.00123697 -0.000996696
372 1 0.250064 0.874569 0.999573 -0.00206573 -0.00258447 -0.00239843
373 1 0.313155 0.936678 0.0615688 0.010097 0.026165 0.0451291
374 1 0.250179 0.875072 0.124763 0.013889 -0.0556383 -0.0189829
375 1 0.312745 0.937475 0.187488 0.00939756 -0.00200141 -0.0110401
376 1 0.250164 0.87517 0.249957 -0.000620601 -0.0772222 -0.000367594
377 1 0.313114 0.936001 0.312885 0.00891731 0.138004 0.00189415
378 1 0.250004 0.875066 0.375201 -0.0149255 -0.0516163 0.0179027
379 1 0.312699 0.936873 0.438337 0.00951256 -0.0188754 -0.0117705
380 1 0.249972 0.874597 0.500346 0.00334235 -0.0021708 0.00121414
381 1 0.312598 0.936884 0.563056 -0.00288139 -0.00231887 0.00164927
382 1 0.249934 0.874676 0.625214 0.000481587 0.000108957 -0.00109681
383 1 0.312558 0.937151 0.687707 0.000147197 -0.000803992 -0.000805388
384 1 0.249979 0.874749 0.749959 0.000378514 -0.000925802 -0.000780802
385 1 0.312613 0.937178 0.812304 0.000153179 -0.00136749 -0.00134831
386 1 0.250013 0.874693 0.874709 0.000785462 -0.00141385 -0.000834974
387 1 0.312748 0.936969 0.937009 0.00327863 -0.00611873 -0.00496528
388 1 0.375745 0.999146 0.999299 0.00257582 -0.00302397 -0.0122683
389 1 0.438067 0.0617581 0.0618655 -0.0297056 0.0646906 0.0896045
390 1 0.374492 0.000310163 0.125752 0.00529007 -0.0200498 -0.0192194
391 1 0.438912 0.0612099 0.186292 0.00721384 0.0423344 0.00193782
392 1 0.376955 0.998595 0.248978 -0.0445325 0.00986679 0.014747
393 1 0.438722 0.0614336 0.31501 0.0771331 -0.0781683 -0.00168425
394 1 0.377028 0.997628 0.376883 -0.0162746 0.0590286 -0.0143459
395 1 0.436953 0.0630453 0.436956 0.0772238 -0.0772241 0.0772245
396 1 0.375978 0.99859 0.501374 0.00541277 0.0734584 -0.0759336
397 1 0.438493 0.0614738 0.563484 -0.00618162 0.00622017 0.014894
398 1 0.375304 0.999415 0.625547 -0.0010566 0.000781922 -0.00224964
399 1 0.437764 0.0622275 0.687783 0.000744519 -0.00063872 0.00202301
400 1 0.375129 0.999765 0.750032 0.0012293 -0.000662431 -0.000240989
401 1 0.437655 0.0623618 0.812434 0.000716281 -0.000458511 -0.00222747
402 1 0.375368 0.999548 0.874592 0.00103046 0.000836177 0.000131552
403 1 0.437774 0.0622731 0.937233 0.0013422 -0.000481933 -0.00467607
404 1 0.375239 0.124882 0.999646 -0.0271506 0.00843705 0.00359921
405 1 0.437947 0.186521 0.0618679 0.00362816 0.00615583 0.0458997
406 1 0.375206 0.124058 0.125002 0.110975 0.0267307 -0.0287593
407 1 0.433469 0.1921 0.192019 0.19187 -0.13057 -0.199174
408 1 0.382309 0.119056 0.250267 -0.0534339 0.0272622 -0.0264037
409 1 0.447682 0.184907 0.315668 -0.0324066 -0.0664043 0.047273
410 1 0.370208 0.129791 0.37021 0.253909 -0.253909 0.25391
411 1 0.438565 0.184991 0.438725 0.0781682 0.00168468 0.0771336
412 1 0.37688 0.12297 0.502373 -0.0143464 0.0162748 -0.0590289
413 1 0.438334 0.187299 0.563128 -0.0117708 -0.00951258 0.0188751
414 1 0.3754 0.124531 0.625309 0.0148433 -0.0145658 0.0303377
415 1 0.4376 0.187435 0.687623 0.00132775 0.000940491 0.00194404
416 1 0.375065 0.124884 0.750048 0.000255329 6.01155e-05 0.00076645
417 1 0.437547 0.187463 0.812487 0.000750405 0.000100144 -0.000142394
418 1 0.375121 0.124829 0.874827 0.00137099 -3.80947e-05 -0.00469886
419 1 0.437979 0.187142 0.937085 0.000784707 0.00280496 -0.00250018
420 1 0.37617 0.249605 0.998818 -0.0498982 -0.0126326 0.0473297
421 1 0.437422 0.313926 0.0627456 0.0912761 0.0306867 -0.0770256
422 1 0.377911 0.250293 0.120472 -0.0823359 0.0858243 0.104669
423 1 0.447654 0.314938 0.185145 -0.0827853 0.0828241 -0.0564355
424 1 0.433659 0.309151 0.310146 0.208664 0.142356 0.0210915
425 1 0.380943 0.249734 0.382312 -0.0272617 0.026404 -0.0534336
426 1 0.438788 0.313709 0.438914 -0.0423336 -0.00193778 0.00721385
427 1 0.376357 0.250896 0.501365 -0.0258457 -0.0147023 -0.0195793
428 1 0.438314 0.312983 0.563178 -0.0565434 0.00796321 -0.0395929
429 1 0.375199 0.249995 0.624935 0.0179025 0.0149256 0.0516163
430 1 0.437523 0.312515 0.68761 -0.00240586 0.000421938 -0.00146855
431 1 0.374961 0.249949 0.750032 -0.000236344 0.000666769 0.00136924
432 1 0.437461 0.312495 0.812551 -0.000127373 0.00101597 -0.000713184
433 1 0.37503 0.249977 0.875035 0.00485635 -0.00484581 -0.00976514
434 1 0.437713 0.31273 0.937467 0.013361 0.0014352 -0.0293933
435 1 0.375133 0.375125 0.999917 0.024949 0.0156658 -0.00425972
436 1 0.436984 0.436998 0.062779 0.0180819 0.0451518 -0.0228461
437 1 0.371728 0.372281 0.129913 -0.0458309 0.0586194 -0.0477511
438 1 0.439648 0.439205 0.185621 -0.0119333 0.0367786 0.00693208
439 1 0.381086 0.383374 0.250846 -0.0775146 0.0402208 0.0179193
440 1 0.43912 0.439242 0.314315 0.0369408 0.00239401 0.00692273
441 1 0.37594 0.375 0.375209 -0.026731 0.0287584 0.110975
442 1 0.43824 0.438136 0.43807 -0.0646901 -0.0896045 -0.0297057
443 1 0.373796 0.373914 0.498996 0.0551336 0.0388985 0.0590469
444 1 0.43719 0.4372 0.562354 0.000795138 -0.000771229 -0.000611551
445 1 0.374854 0.374788 0.624825 0.00593362 0.00624108 0.0268663
446 1 0.437387 0.437382 0.687519 0.00105577 0.000963113 0.00476923