ITEM: TIMESTEP
0
ITEM: NUMBER OF ATOMS
1026
ITEM: BOX BOUNDS pp pp pp
0.0000000000000000e+00 2.2857118000000000e+01
0.0000000000000000e+00 2.2857118000000000e+01
0.0000000000000000e+00 2.2857118000000000e+01
ITEM: ATOMS id type xs ys zs fx fy fz
1 1 0.216395 0.215562 0.140922 0.0901699 0.12478 0.118
2 1 0.284688 0.285761 0.143311 -0.0843361 -0.127787 0.108982
3 1 0.216492 0.142299 0.214205 0.0539542 0.111101 0.154219
4 1 0.143308 0.215311 0.21424 0.108983 0.0843371 0.127786
5 1 0.357699 0.285797 0.216495 -0.111101 -0.15422 0.0539538
6 1 0.284436 0.359079 0.216398 -0.12478 -0.118 0.0901699
7 1 0.285024 0.142189 0.284209 -0.132587 0.113115 -0.0855851
8 1 0.357809 0.215792 0.285027 -0.113115 0.0855848 -0.132587
9 1 0.140919 0.283603 0.284439 0.118 -0.0901691 -0.124781
10 1 0.214237 0.35669 0.284691 0.127787 -0.108982 -0.0843365
11 1 0.284206 0.214975 0.357812 -0.085585 0.132587 -0.113115
12 1 0.214202 0.283506 0.357702 0.15422 -0.0539539 -0.111101
13 1 2.58162e-05 5.84695e-05 1.9176e-05 0.000492755 -0.0022108 -0.00444313
14 1 0.0635513 0.0634968 0.0633334 -0.0902544 -0.093225 -0.0949486
15 1 0.999022 0.99896 0.124236 0.0797038 0.0801895 -0.00877956
16 1 0.0620668 0.0619091 0.185056 -0.0965095 -0.097114 -0.00388392
17 1 0.999827 0.999768 0.249795 0.00816223 0.0121991 -0.00287769
18 1 0.0616313 0.0616488 0.313611 0.030815 0.00813652 -0.00587071
19 1 0.999793 0.999758 0.375288 -0.0259281 -0.0245781 0.00859915
20 1 0.0616871 0.0617007 0.438359 0.105315 0.0921716 -0.112522
21 1 0.999614 0.999559 0.500397 0.0101106 0.00853474 -0.0108009
22 1 0.0626565 0.0625651 0.562476 -0.00205563 0.000695315 -0.000806598
23 1 0.99995 0.999897 0.625031 -0.00114702 -0.000661262 0.00225204
24 1 0.0624218 0.0624005 0.687518 0.000176461 -5.5759e-05 0.00413133
25 1 0.999812 0.99982 0.749863 0.000577879 -9.87993e-05 0.00234487
26 1 0.062233 0.0622403 0.812228 0.00147765 0.000624756 -0.000162041
27 1 0.999551 0.999584 0.874522 0.00307005 0.00189261 -0.00187553
28 1 0.0616713 0.0616432 0.936647 0.00524743 0.00485968 -0.015587
29 1 0.998898 0.124236 0.998721 0.0819769 -0.00377289 0.0828591
30 1 0.061897 0.185273 0.0614204 -0.08481 -0.00204581 -0.084494
31 1 0.998384 0.123653 0.123425 0.0497523 -0.00363425 -0.00115767
32 1 0.0533574 0.185375 0.185149 0.0161954 -0.0827567 -0.0680361
33 1 0.999047 0.123702 0.250905 0.00884745 0.0331417 0.00579271
34 1 0.0668978 0.191111 0.308293 -0.271348 -0.130173 0.132124
35 1 0.00065944 0.125775 0.374034 -0.0415368 -0.0205085 0.0459779
36 1 0.0610929 0.185857 0.438797 0.0234213 0.00703188 -0.0312827
37 1 0.999462 0.124394 0.500551 -0.0166481 -0.00207755 0.0151021
38 1 0.0614897 0.186819 0.563282 0.0594887 -0.00439431 -0.0449505
39 1 0.99958 0.124607 0.625412 0.00717063 -0.000608651 -0.00811423
40 1 0.0623505 0.187389 0.687595 0.00138314 -0.000303051 -0.00197774
41 1 0.999815 0.124908 0.749983 0.000533513 -0.00155635 -0.000482572
42 1 0.062365 0.187487 0.812409 -0.000775478 0.000147371 -0.00200778
43 1 0.999567 0.124799 0.874546 0.00151497 0.00123548 0.00160647
44 1 0.0617759 0.18745 0.936897 0.012869 -0.00789376 -0.0166374
45 1 0.999615 0.24993 0.99944 0.0131417 -0.00367015 0.0188522
46 1 0.061419 0.313897 0.0612382 0.0318165 -0.0066177 0.0199383
47 1 0.99908 0.251045 0.123476 0.00357583 0.00493282 0.0388849
48 1 0.0670915 0.308138 0.191173 -0.286803 0.148083 -0.140557
49 1 0.998634 0.250037 0.250091 -0.185654 -0.00608259 -0.0107791
50 1 0.0519809 0.314653 0.314986 0.0444804 0.0868179 0.0705811
51 1 0.998448 0.24856 0.376557 0.0206496 0.0261882 -0.0347345
52 1 0.0613302 0.314524 0.438417 -0.0765288 0.00223592 0.0764333
53 1 0.999342 0.249976 0.500581 0.0177545 0.0027344 -0.0178271
54 1 0.0616739 0.312468 0.562952 0.00840296 0.00684245 0.0188808
55 1 0.999571 0.249931 0.625362 -0.00167851 0.00199466 0.00258889
56 1 0.0623666 0.312509 0.687534 -0.00144315 -0.00113841 0.00230312
57 1 0.999843 0.250024 0.749985 0.00033171 -0.000805581 0.000293854
58 1 0.0623603 0.312628 0.812382 0.00225997 -0.000937449 0.00244942
59 1 0.999606 0.250086 0.874607 -0.00043941 -0.00356814 -0.00178354
60 1 0.0615364 0.313162 0.936677 0.0653061 0.00332242 0.0486011
61 1 0.999554 0.375481 0.999538 -0.0203388 0.0059097 -0.0203029
62 1 0.0615073 0.438491 0.0615104 0.114886 -0.114886 0.114886
63 1 0.000723395 0.374017 0.125825 -0.0486795 0.0507435 -0.0343861
64 1 0.0612352 0.438579 0.186104 0.0199382 -0.0318168 0.00661781
65 1 0.998568 0.376263 0.248698 0.0175737 -0.022291 0.0233729
66 1 0.0614173 0.438101 0.314728 -0.084494 0.0848097 0.0020458
67 1 0.997675 0.376563 0.376749 0.0597159 -0.012973 -0.015573
68 1 0.0633303 0.436447 0.436504 -0.0949485 0.090254 0.0932249
69 1 0.998698 0.375784 0.501211 0.0794591 0.00148937 -0.0795608
70 1 0.0617214 0.438193 0.563133 -0.000238417 -0.00139967 0.0212561
71 1 0.99958 0.375205 0.625362 -0.00115636 -0.00180816 0.000454077
72 1 0.0623176 0.437667 0.687649 -0.00078924 -0.000312623 0.00108895
73 1 0.999834 0.37512 0.749967 0.000285131 2.94627e-05 0.00164422
74 1 0.0624439 0.437565 0.812448 -0.000255818 -0.00043076 -0.00390032
75 1 0.999571 0.375393 0.874573 0.00862672 -0.00104252 0.00953422
76 1 0.0625923 0.437411 0.937507 0.00140748 -0.00157152 0.00309881
77 1 0.999455 0.500543 0.999458 0.013892 -0.013892 0.013892
78 1 0.0625874 0.562494 0.0625953 0.00157163 -0.00309889 0.00140751
79 1 0.999535 0.500444 0.12452 -0.0203028 0.0203387 -0.00590967
80 1 0.0615792 0.563161 0.186975 0.0524144 -0.0411626 -0.00395197
81 1 0.999437 0.500383 0.250071 0.0188524 -0.0131417 0.00367015
82 1 0.061775 0.562789 0.312552 0.00175485 0.0269324 0.00501377
83 1 0.998718 0.5011 0.375765 0.0828592 -0.0819769 0.00377285
84 1 0.0618383 0.56299 0.438087 -0.00517245 0.0273492 0.00440889
85 1 1.61416e-05 0.499972 0.499943 -0.00444312 -0.000492897 0.00221071
86 1 0.062059 0.562985 0.562973 -0.00596161 -0.00697692 -0.00647745
87 1 0.999657 0.500365 0.625357 -0.000478416 -0.00149287 0.00394185
88 1 0.0623557 0.5627 0.687622 -0.00102024 0.000360388 0.00130115
89 1 0.999867 0.500146 0.750042 -0.000555997 -0.000122388 -0.000912225
90 1 0.0623016 0.562693 0.812328 0.000255631 -0.00180009 0.00255654
91 1 0.999898 0.500093 0.874896 9.65166e-05 -0.000164194 -0.000649893
92 1 0.0622501 0.562759 0.937225 0.000894813 0.00177747 -0.0018233
93 1 0.999905 0.625105 0.999901 0.000164267 0.000649855 9.65599e-05
94 1 0.0624334 0.687553 0.0624469 0.000430823 0.00390027 -0.000255798
95 1 0.999642 0.625366 0.124676 0.00597133 -0.00680079 -0.00103132
96 1 0.0624122 0.687582 0.187421 0.00125842 -0.00154423 -0.000130068
97 1 0.999671 0.625281 0.249962 -0.00235824 0.00413731 0.00121833
98 1 0.062447 0.687521 0.312488 -0.00172999 0.00252055 -0.00066598
99 1 0.999676 0.625297 0.375143 -0.0027203 0.00150201 -0.00095451
100 1 0.0624101 0.687624 0.437562 -0.00206662 0.00203047 0.00108791
101 1 0.999746 0.625315 0.500232 -0.00296605 0.0058742 0.00211278
102 1 0.0623882 0.687617 0.562612 -0.00146825 0.00188738 0.00135756
103 1 0.999755 0.625247 0.625191 -0.00133441 -0.00184643 -0.00110808
104 1 0.0623824 0.68756 0.687509 0.000181469 0.000751799 0.00129221
105 1 0.999826 0.625151 0.749969 0.000236882 -0.000786586 0.00130448
106 1 0.062334 0.687575 0.812355 0.00050737 -0.000865199 0.00108138
107 1 0.99982 0.625147 0.874829 0.0009742 -0.000378064 0.000247948
108 1 0.062252 0.68768 0.937248 0.00141149 -0.00372598 0.00256594
109 1 0.999852 0.749959 0.999871 0.000122408 0.000912194 -0.000555953
110 1 0.062331 0.812353 0.0623206 0.000312616 -0.00108893 -0.000789203
111 1 0.999903 0.750034 0.124931 0.000137616 -0.000791833 -0.00143991
112 1 0.0624911 0.812497 0.187465 -0.00177057 -0.00145772 -0.000120428
113 1 0.999963 0.750019 0.249981 -0.000543477 0.000948936 -0.00038231
114 1 0.0625052 0.81246 0.312518 0.000967832 0.00292729 -0.000407369
115 1 0.99996 0.750005 0.375012 -0.000496737 0.00187654 0.000960343
116 1 0.0625772 0.812519 0.437405 -0.00178538 -0.00459256 0.00155133
117 1 0.999981 0.750069 0.499994 -0.00193464 -0.000772663 0.00169498
118 1 0.0623631 0.812355 0.562574 -9.97287e-05 0.00285237 -0.000935752
119 1 0.999871 0.749999 0.625035 -0.000393329 0.00102537 0.000591843
120 1 0.0623587 0.812384 0.687466 0.000331083 0.000283761 0.000511932
121 1 0.999828 0.749981 0.749908 0.000875826 -8.98367e-05 0.000949178
122 1 0.0623013 0.812362 0.812314 0.00179387 -0.000264475 0.000247591
123 1 0.99977 0.74999 0.874792 0.00124052 -0.00136642 0.00125941
124 1 0.0622684 0.812331 0.93723 0.000888614 -0.00150199 -0.000291634
125 1 0.999634 0.874644 0.99966 0.00149279 -0.00394195 -0.000478467
126 1 0.0618051 0.936868 0.0617244 0.00139951 -0.0212562 -0.000238469
127 1 0.999725 0.874715 0.124837 -0.00120791 -0.000407548 -0.00044937
128 1 0.0619902 0.937203 0.187386 0.00427532 -0.0248826 -0.00848416
129 1 0.999805 0.874782 0.249989 -0.00300851 -0.00373865 -0.00285891
130 1 0.0617691 0.936908 0.312942 0.0589604 0.0486854 0.00294412
131 1 0.999778 0.874725 0.375218 0.00606763 0.00819902 0.000921189
132 1 0.0627896 0.937665 0.437198 -0.00148669 0.000459156 0.00164692
133 1 6.21038e-05 0.874993 0.499913 -0.00223041 -0.00191871 0.00224408
134 1 0.0623588 0.937291 0.562617 -0.00128446 -0.00317095 0.00458678
135 1 0.999897 0.874873 0.625004 -0.000399979 -0.000763224 0.00185172
136 1 0.0622854 0.937245 0.687571 0.000865904 0.00185638 -0.0018796
137 1 0.999776 0.874795 0.749882 0.0012449 0.00100496 0.000224744
138 1 0.06224 0.937181 0.812224 0.0017216 0.000970115 0.000274974
139 1 0.999625 0.874699 0.87467 0.00138754 0.00311457 0.00333985
140 1 0.0619249 0.93689 0.936862 -0.00119357 0.00907841 0.00892501
141 1 0.124214 0.99879 0.998701 -0.00148948 0.0795608 0.0794592
142 1 0.185474 0.0615839 0.0613333 -0.00223636 -0.0764337 -0.0765289
143 1 0.123615 0.998101 0.123243 0.00748365 0.0562206 0.00883552
144 1 0.185476 0.0528644 0.184835 -0.0825329 0.0289504 -0.0619625
145 1 0.1239 0.999034 0.250986 0.0238957 0.0085487 -0.00640919
146 1 0.191882 0.0673234 0.308022 -0.163106 -0.298584 0.162124
147 1 0.12613 0.000953644 0.373818 -0.0489872 -0.0567734 0.05561
148 1 0.186251 0.0614012 0.438518 -0.000661788 0.00988457 -0.0311429
149 1 0.124641 0.999624 0.500304 -0.00756477 -0.0224164 0.0232795
150 1 0.186955 0.0614955 0.563264 -0.00281014 0.0589129 -0.0483591
151 1 0.124679 0.999575 0.625355 -0.000159044 0.00690969 -0.00810186
152 1 0.187406 0.062317 0.687599 0.00050711 0.0020112 -0.00301397
153 1 0.124876 0.999784 0.749949 0.000110313 0.000733354 -0.000332169
154 1 0.187463 0.0622949 0.812375 0.00202151 -1.46981e-05 -0.00132327
155 1 0.124737 0.999496 0.874494 0.00358697 0.00239603 0.00228187
156 1 0.187473 0.0615876 0.936802 -0.00556278 0.0176426 -0.0118913
157 1 0.123435 0.123253 0.997678 0.0129727 0.0155728 0.0597158
158 1 0.185346 0.185015 0.0519839 -0.086818 -0.0705818 0.0444804
159 1 0.130867 0.130449 0.129791 -0.292559 -0.273062 -0.250774
160 1 0.119331 0.118834 0.249364 0.0421314 0.060468 0.0503853
161 1 0.18579 0.185268 0.313293 0.0724125 0.0723969 -0.0688832
162 1 0.124604 0.124631 0.37545 0.0161126 -0.00393968 -0.0450446
163 1 0.191266 0.191118 0.43273 -0.131119 -0.121976 0.296843
164 1 0.125939 0.125788 0.49931 -0.0415111 -0.0302202 0.0468672
165 1 0.187444 0.187354 0.562434 -0.00856516 -0.00682681 -0.00971709
166 1 0.124982 0.124931 0.624945 -0.00598056 -0.0052793 0.0267183
167 1 0.187467 0.187433 0.687448 -0.00101627 -0.000850988 -0.000304139
168 1 0.124907 0.124894 0.749959 0.000862748 0.000329959 -0.000252337
169 1 0.18741 0.187378 0.812394 0.00231838 0.00215237 0.0117141
170 1 0.124592 0.124545 0.874654 -0.0110527 -0.0113335 -0.0275485
171 1 0.187089 0.186962 0.93576 0.00214245 0.00398173 0.154169
172 1 0.123735 0.251303 0.998571 0.022291 -0.0233728 0.0175734
173 1 0.191861 0.308828 0.0670945 -0.148082 0.140557 -0.286803
174 1 0.119246 0.249931 0.118028 0.0184208 0.035094 0.0571868
175 1 0.185835 0.314164 0.185838 0.0681274 -0.0681275 0.0681272
176 1 0.117969 0.249538 0.381264 0.0358224 -0.0118536 -0.016672
177 1 0.184832 0.314522 0.447137 -0.0619621 0.0825328 -0.0289503
178 1 0.123445 0.248582 0.501134 0.030746 0.0168378 -0.00853532
179 1 0.186996 0.312737 0.563794 -0.00523168 0.000623374 -0.125473
180 1 0.124708 0.24981 0.624889 -0.0199424 -0.0128282 0.0559954
181 1 0.187397 0.312491 0.687532 0.000606272 -0.000846042 -0.00825918
182 1 0.124928 0.249988 0.749995 -0.000520127 -3.71768e-05 -0.000837142
183 1 0.187488 0.312499 0.81257 -0.000438719 0.00194181 -0.00153133
184 1 0.124759 0.250167 0.875043 -0.0193201 0.0122324 -0.0555717
185 1 0.187581 0.312622 0.937597 -0.0090341 0.0063184 -0.000535903
186 1 0.125982 0.374177 0.000726435 -0.0507435 0.0343862 -0.0486797
187 1 0.186101 0.438763 0.061422 0.00661774 -0.0199383 0.0318164
188 1 0.124464 0.375534 0.124468 0.0276899 -0.0276901 0.0276903
189 1 0.19117 0.432907 0.191864 -0.140556 0.286803 -0.148082
190 1 0.118025 0.380753 0.25007 0.0571873 -0.0184208 -0.035094
191 1 0.185146 0.446641 0.314626 -0.0680362 -0.0161949 0.0827571
192 1 0.129788 0.369131 0.369552 -0.250774 0.292559 0.273062
193 1 0.185053 0.437931 0.438092 -0.00388404 0.0965093 0.0971141
194 1 0.12324 0.376384 0.5019 0.00883565 -0.00748397 -0.0562206
195 1 0.187383 0.438008 0.562798 -0.00848427 -0.00427554 0.0248825
196 1 0.124626 0.375249 0.625134 -0.0148955 0.0139911 0.0320786
197 1 0.187462 0.437507 0.687505 -0.000120467 0.00177057 0.00145775
198 1 0.124938 0.375032 0.750006 0.000218583 -0.000298788 -0.000511727
199 1 0.187418 0.437586 0.812419 -0.000130035 -0.0012584 0.00154422
200 1 0.125014 0.37504 0.875085 -0.00645755 0.00403621 -0.027567
201 1 0.186972 0.438419 0.93684 -0.00395198 -0.0524145 0.0411627
202 1 0.124517 0.500464 0.999557 -0.00590966 0.0203029 -0.0203388
203 1 0.186836 0.563324 0.0615395 -0.00332242 -0.0486011 0.0653061
204 1 0.125822 0.499275 0.125985 -0.0343858 0.0486795 -0.0507435
205 1 0.187376 0.562404 0.187584 -0.00631834 0.000536111 -0.00903404
206 1 0.123473 0.500918 0.248957 0.0388851 -0.00357565 -0.00493307
207 1 0.187089 0.563646 0.312808 -0.00848821 -0.102421 0.00656371
208 1 0.123422 0.501614 0.376348 -0.00115791 -0.0497521 0.00363447
209 1 0.18735 0.562724 0.438042 -0.00475034 0.0286852 -0.000619909
210 1 0.124233 0.500977 0.501041 -0.00877959 -0.0797038 -0.0801895
211 1 0.187483 0.562774 0.562799 0.0016344 0.00431263 0.00402138
212 1 0.124834 0.500273 0.625286 -0.000449415 0.00120786 0.000407497
213 1 0.187461 0.56262 0.687594 -0.000313837 0.000915596 -0.000191196
214 1 0.124928 0.500096 0.749967 -0.00143992 -0.000137604 0.000791835
215 1 0.18741 0.562654 0.812351 0.000304783 0.00101358 -0.00168796
216 1 0.124673 0.500357 0.874635 -0.0010313 -0.0059713 0.00680082
217 1 0.187325 0.562834 0.937175 -0.00134892 0.00136354 -0.00114598
218 1 0.124605 0.625428 0.999575 0.00104256 -0.00953424 0.00862672
219 1 0.18737 0.687619 0.0623633 0.000937457 -0.00244945 0.00226002
220 1 0.124958 0.624917 0.125017 -0.00403611 0.0275669 -0.00645752
221 1 0.1875 0.687431 0.187491 -0.00194183 0.0015314 -0.00043868
222 1 0.124748 0.62486 0.249916 -0.0189263 0.0535868 -0.0138239
223 1 0.187474 0.687516 0.312496 -0.000773308 -0.00523332 0.000411753
224 1 0.124716 0.625061 0.37521 -0.017032 0.0355017 0.0161869
225 1 0.187479 0.687496 0.437507 -9.46437e-07 0.00216135 0.00137417
226 1 0.124845 0.625238 0.500233 -0.000331742 0.00201762 0.00279925
227 1 0.187463 0.687563 0.562599 -8.13111e-05 0.000929962 0.00107785
228 1 0.124925 0.625146 0.625134 -0.000474522 0.00208861 0.00201168
229 1 0.187454 0.687518 0.687512 -0.000382216 0.000597048 0.000503166
230 1 0.124903 0.625107 0.749958 3.59117e-05 0.00056818 -8.0201e-05
231 1 0.187403 0.68757 0.812349 0.000554304 -0.000615183 0.00045426
232 1 0.124825 0.62519 0.874775 0.000172543 -0.000856851 0.000793104
233 1 0.187367 0.687672 0.937255 0.00181589 0.000109693 -0.00012674
234 1 0.124879 0.750035 0.999837 -2.94222e-05 -0.00164425 0.000285178
235 1 0.187489 0.812468 0.0623696 0.00113839 -0.00230306 -0.00144309
236 1 0.124966 0.749995 0.124941 0.000298799 0.000511743 0.000218594
237 1 0.187507 0.812469 0.1874 0.000845979 0.00825925 0.000606304
238 1 0.125016 0.750007 0.249966 -0.00105066 0.000484948 -3.54621e-05
239 1 0.18759 0.812587 0.31242 -0.00188456 0.000682645 0.00135698
240 1 0.125032 0.750015 0.374952 -0.00110872 0.000898983 0.000380628
241 1 0.187468 0.812426 0.437514 -0.000416943 0.00250252 -0.0016409
242 1 0.124966 0.74997 0.500022 -0.00156147 0.00152787 -1.11656e-05
243 1 0.187433 0.812337 0.562604 0.000674395 -0.0010587 0.00100413
244 1 0.124918 0.749959 0.62504 0.000168275 5.62004e-05 0.0011403
245 1 0.187418 0.812349 0.687507 0.000569722 0.000323011 2.85426e-05
246 1 0.124882 0.749958 0.749912 0.000469561 -0.000136881 0.000518067
247 1 0.187417 0.812357 0.812327 0.000808815 -0.000143289 0.00025067
248 1 0.124846 0.749991 0.874787 0.00138195 -0.000402936 -6.17032e-05
249 1 0.187418 0.812336 0.937233 0.00133922 -0.000443105 -0.000370044
250 1 0.124794 0.874639 0.999583 0.00180813 -0.000454139 -0.00115638
251 1 0.187531 0.937049 0.061677 -0.00684256 -0.0188809 0.00840291
252 1 0.124749 0.874867 0.124629 -0.0139911 -0.0320786 -0.0148954
253 1 0.187261 0.936207 0.186999 -0.000623492 0.125473 -0.00523153
254 1 0.124906 0.875178 0.250039 -0.0199367 -0.0553781 0.0125971
255 1 0.187688 0.937741 0.312323 -0.0108345 -0.0015467 0.0102556
256 1 0.125159 0.875196 0.374848 -0.0076429 -0.029079 0.00724308
257 1 0.187026 0.936834 0.438309 -0.00653445 0.0475445 -0.0622047
258 1 0.124743 0.874662 0.500251 -0.00138848 0.00859229 -0.00713325
259 1 0.187394 0.937195 0.562732 -0.00225837 -0.00209632 0.00280571
260 1 0.124874 0.874798 0.625083 -0.000449065 -0.000119883 0.00056915
261 1 0.187407 0.937235 0.687597 0.00118323 -0.000173786 0.000998015
262 1 0.124858 0.87478 0.7499 0.00129591 7.29728e-05 0.000987023
263 1 0.187427 0.937186 0.81225 0.00118885 0.000824594 0.000987447
264 1 0.12482 0.874709 0.874682 0.00222696 -0.000407517 -0.000386277
265 1 0.187458 0.936981 0.93695 0.00470349 -0.0014621 -0.00224886
266 1 0.250022 0.99942 0.999345 -0.00273457 0.0178269 0.0177544
267 1 0.314141 0.0612039 0.061096 -0.00703196 0.0312832 0.0234215
268 1 0.251416 0.998867 0.123448 -0.0168377 0.00853502 0.030746
269 1 0.30888 0.0672713 0.191269 0.121976 -0.296844 -0.131119
270 1 0.250294 0.998947 0.24979 -0.00184721 -0.207493 -0.000381696
271 1 0.315088 0.052774 0.314753 0.0637209 0.0350212 0.0756696
272 1 0.248953 0.99888 0.376205 0.00950514 0.0123166 -0.0223588
273 1 0.314808 0.0616155 0.438279 0.0030236 -0.0830579 0.085656
274 1 0.250149 0.999553 0.500381 0.00134739 0.0126758 -0.0105256
275 1 0.31259 0.0616859 0.56299 0.00522502 0.0106652 0.0165897
276 1 0.24998 0.999571 0.62534 0.00208395 -0.000446511 0.00188074
277 1 0.312545 0.062328 0.687565 -0.000999078 -0.000353341 0.00124436
278 1 0.250011 0.999794 0.74996 0.000187261 0.0008376 0.00023779
279 1 0.312643 0.0622935 0.81235 -0.000238356 0.00314063 0.00267739
280 1 0.250092 0.999501 0.874531 -0.00306325 0.00114455 -0.000413619
281 1 0.313241 0.06141 0.936598 0.00279844 0.0661535 0.0475303
282 1 0.251438 0.123444 0.998451 -0.026188 0.0347344 0.0206493
283 1 0.308887 0.191708 0.0669008 0.130173 -0.132125 -0.271348
284 1 0.25046 0.118738 0.117972 0.0118534 0.0166719 0.0358223
285 1 0.31473 0.186708 0.185793 -0.0723965 0.0688829 0.0724121
286 1 0.250192 0.118469 0.380964 -0.0282038 0.0334056 -0.0216044
287 1 0.31475 0.18491 0.447227 0.0756694 -0.0637206 -0.0350212
288 1 0.248817 0.123474 0.501124 0.011075 0.0318119 -0.00550232
289 1 0.312848 0.186971 0.563884 0.00014466 -0.00218256 -0.128712
290 1 0.249883 0.124669 0.624928 -0.0130699 -0.0182253 0.0550649
291 1 0.312529 0.187374 0.687566 -0.000864814 0.00148333 -0.00933665
292 1 0.249998 0.124885 0.749997 0.000683678 -6.44988e-05 -0.000929305
293 1 0.312496 0.187462 0.812558 0.00210223 0.000262776 -0.0010153
294 1 0.250188 0.124644 0.874982 0.0134128 -0.0165324 -0.0522509
295 1 0.312621 0.187515 0.937526 0.00351963 -0.00735821 0.000887816
296 1 0.249961 0.24991 0.998637 0.00608267 0.0107792 -0.185653
297 1 0.314623 0.314852 0.0533604 0.0827572 0.0680361 0.0161952
298 1 0.249987 0.250012 0.24999 -0.00471679 0.00471788 -0.00471818
299 1 0.31329 0.314209 0.314733 -0.0688831 -0.0724123 -0.0723965
300 1 0.308019 0.308117 0.432678 0.162124 0.163106 0.298583
301 1 0.249787 0.249704 0.501055 -0.000381791 0.00184721 0.207493
302 1 0.31232 0.31231 0.562261 0.0102556 0.0108345 0.00154707
303 1 0.24993 0.249889 0.624846 -5.27984e-05 0.000820266 0.0729547
304 1 0.312417 0.312408 0.687415 0.00135694 0.00188453 -0.000682604
305 1 0.249957 0.249944 0.750006 0.000802551 0.000985897 -0.00103185
306 1 0.312493 0.312524 0.812485 0.000411728 0.000773261 0.00523332
307 1 0.249986 0.249974 0.875104 0.00399077 0.00462288 -0.0705617
308 1 0.312805 0.312909 0.936355 0.00656367 0.00848813 0.102421
309 1 0.248953 0.376525 0.999083 -0.00493289 -0.0388848 0.00357542
310 1 0.314725 0.438581 0.0619 0.00204597 0.0844941 -0.08481
311 1 0.250067 0.381973 0.119249 -0.0350937 -0.0571868 0.0184203
312 1 0.314983 0.448017 0.185349 0.0705819 -0.0444805 -0.0868182
313 1 0.30829 0.4331 0.30889 0.132125 0.271348 0.130173
314 1 0.249361 0.380667 0.381167 0.0503852 -0.0421316 -0.0604684
315 1 0.313608 0.438367 0.438352 -0.00587088 -0.0308151 -0.00813657
316 1 0.250983 0.376098 0.500967 -0.0064094 -0.0238958 -0.00854873
317 1 0.312939 0.438229 0.563093 0.00294403 -0.0589605 -0.0486854
318 1 0.250036 0.375092 0.624824 0.012597 0.0199367 0.0553782
319 1 0.312515 0.437493 0.687541 -0.00040738 -0.000967881 -0.00292726
320 1 0.249963 0.374982 0.749994 -3.54692e-05 0.00105065 -0.000484884
321 1 0.312485 0.437551 0.81248 -0.000665933 0.00173 -0.00252051
322 1 0.249913 0.37525 0.875141 -0.0138239 0.0189263 -0.053587
323 1 0.312549 0.438223 0.937212 0.00501385 -0.00175478 -0.0269325
324 1 0.250068 0.500561 0.999618 0.00367021 -0.0188522 0.0131415
325 1 0.312548 0.563105 0.0617789 0.00789373 0.0166374 0.0128691
326 1 0.248695 0.50143 0.123738 0.023373 -0.0175735 0.0222909
327 1 0.313036 0.564242 0.187092 -0.00398176 -0.154169 0.00214254
328 1 0.250088 0.501364 0.249964 -0.0107793 0.185653 0.00608274
329 1 0.312484 0.562475 0.312624 0.0073582 -0.000887612 0.0035196
330 1 0.250901 0.500951 0.376299 0.00579294 -0.00884741 -0.0331416
331 1 0.312948 0.563103 0.438279 0.000508158 -0.0400459 -0.0466288
332 1 0.249792 0.500171 0.500234 -0.00287782 -0.00816228 -0.0121991
333 1 0.312543 0.562615 0.562651 0.00244257 0.00397518 0.00321157
334 1 0.249986 0.500193 0.62522 -0.00285896 0.00300845 0.00373867
335 1 0.312523 0.562569 0.687574 -0.000518096 0.001976 0.00123444
336 1 0.249978 0.500035 0.749983 -0.000382266 0.000543492 -0.00094892
337 1 0.31251 0.562654 0.812345 -0.000563373 0.000885882 -0.000487992
338 1 0.249959 0.500327 0.87472 0.00121841 0.00235829 -0.00413733
339 1 0.312496 0.562979 0.937062 -0.00299976 0.00210308 -0.00170109
340 1 0.249913 0.625394 0.999609 0.00356815 0.00178351 -0.000439404
341 1 0.312511 0.687592 0.062368 -0.000147425 0.0020078 -0.0007754
342 1 0.249831 0.624958 0.124762 -0.0122324 0.0555717 -0.0193201
343 1 0.31262 0.687607 0.187413 -0.00215245 -0.0117141 0.00231847
344 1 0.250025 0.624898 0.249989 -0.00462291 0.0705618 0.00399083
345 1 0.312536 0.687443 0.312499 -0.000262855 0.0010154 0.00210231
346 1 0.250042 0.624872 0.375182 0.0130756 0.0508799 0.0188129
347 1 0.31255 0.687553 0.437574 -0.000156671 -0.00209805 -0.00147573
348 1 0.249975 0.625177 0.500213 -0.00124323 0.00528554 0.00317682
349 1 0.312522 0.687528 0.562609 0.000122735 0.0025428 0.00129035
350 1 0.250028 0.62509 0.625118 -0.000495621 0.000348059 -0.000188441
351 1 0.31252 0.687492 0.687528 0.000350227 0.000437165 -0.000235395
352 1 0.249975 0.625073 0.749956 1.72154e-05 0.000747819 -0.000224155
353 1 0.312505 0.687559 0.812356 0.000770361 -0.000206838 -8.31878e-05
354 1 0.249911 0.625222 0.874748 0.000691118 -0.00133675 0.00101935
355 1 0.312515 0.687687 0.937235 0.000300052 -0.000857082 0.000426063
356 1 0.249974 0.750017 0.999846 0.000805593 -0.000293861 0.000331788
357 1 0.312609 0.812406 0.0623535 0.000302983 0.00197786 0.00138323
358 1 0.250011 0.750006 0.124931 3.71184e-05 0.000837237 -0.000520068
359 1 0.312565 0.812553 0.18747 0.000850895 0.000304273 -0.00101619
360 1 0.250054 0.749995 0.24996 -0.000985972 0.00103197 0.000802601
361 1 0.312624 0.812435 0.312532 -0.00148342 0.00933675 -0.000864736
362 1 0.250027 0.749992 0.374985 -0.000621129 -2.48827e-05 0.000943396
363 1 0.312538 0.812438 0.437568 -0.000870403 -0.0015412 0.000976664
364 1 0.24999 0.749957 0.500042 0.000122199 0.000645103 -1.95134e-05
365 1 0.312528 0.812292 0.562679 -0.00025093 0.000544861 -0.000288212
366 1 0.249979 0.749922 0.625069 0.000253582 0.000425986 0.000308638
367 1 0.312523 0.812326 0.687545 0.000501568 0.000271037 -0.000175949
368 1 0.24997 0.74994 0.749931 0.000578489 -6.0133e-05 -5.32999e-06
369 1 0.312555 0.81235 0.812344 0.000423584 0.000274829 0.000308665
370 1 0.249962 0.749992 0.874793 0.00093637 -0.000728067 -0.000148974
371 1 0.312586 0.812338 0.937246 -0.000105503 -0.00115692 -0.000473121
372 1 0.250068 0.874639 0.999574 -0.0019947 -0.00258887 -0.00167846
373 1 0.313179 0.936719 0.0614927 0.00439415 0.0449509 0.0594889
374 1 0.250188 0.875112 0.124711 0.0128281 -0.0559953 -0.0199423
375 1 0.312644 0.937567 0.187447 0.00682677 0.00971768 -0.00856501
376 1 0.250109 0.875155 0.249933 -0.000820332 -0.0729543 -5.27311e-05
377 1 0.313027 0.936117 0.312851 0.00218242 0.128712 0.000144796
378 1 0.249961 0.875129 0.375153 -0.0136574 -0.055047 0.019548
379 1 0.312614 0.937061 0.438175 0.00726748 -0.0219274 -0.00713864
380 1 0.24999 0.874673 0.500289 0.00247741 -0.00287511 0.00161805
381 1 0.31254 0.93702 0.562931 -0.00300884 -0.00218983 0.00174426
382 1 0.249942 0.874731 0.625172 0.000502632 0.000978478 -0.00113816
383 1 0.312565 0.937205 0.687644 -0.00048824 0.000491007 -0.000509926
384 1 0.249988 0.87477 0.749934 0.000353393 0.00020849 0.000208024
385 1 0.312626 0.9372 0.812279 -0.00118271 0.000557607 -5.93067e-05
386 1 0.250044 0.874713 0.874697 0.000732259 0.00105903 0.0010452
387 1 0.312716 0.937091 0.937085 0.0014913 -0.00108667 -0.00167627
388 1 0.375604 0.99945 0.999465 0.00207755 -0.0151022 -0.0166481
389 1 0.438298 0.0616427 0.0616901 -0.0921721 0.112523 0.105316
390 1 0.37421 0.000691043 0.125942 0.0302206 -0.0468676 -0.0415112
391 1 0.438597 0.0614833 0.186254 -0.00988488 0.0311433 -0.000661674
392 1 0.376524 0.998877 0.24882 -0.0318119 0.00550206 0.0110749
393 1 0.438383 0.0617225 0.314811 0.0830579 -0.085656 0.00302415
394 1 0.376701 0.997972 0.376597 -0.0103374 0.0598471 -0.00880636
395 1 0.436624 0.0633742 0.436627 0.0911077 -0.0911079 0.0911082
396 1 0.375835 0.998771 0.501201 0.00346663 0.0812803 -0.0822213
397 1 0.4383 0.0616765 0.563241 -0.0025801 0.00228841 0.0190992
398 1 0.375236 0.999548 0.625403 -0.00186449 0.0005636 -0.00147374
399 1 0.43772 0.062281 0.687713 -0.000578039 0.000289276 0.000631746
400 1 0.375139 0.999794 0.749976 0.000335156 0.000865907 0.000979832
401 1 0.437599 0.0624381 0.812464 -0.00149539 0.000583832 -0.00304289
402 1 0.375441 0.999523 0.874533 -0.00121127 0.00959905 0.00995321
403 1 0.437424 0.0626289 0.937535 -0.00309552 0.00122347 0.0018978
404 1 0.374223 0.125967 0.00066248 0.0205089 -0.0459785 -0.0415372
405 1 0.438349 0.18639 0.0616343 -0.00813682 0.00587075 0.030815
406 1 0.375367 0.124551 0.124607 0.00393891 0.0450452 0.0161131
407 1 0.432675 0.191979 0.191885 0.298584 -0.162124 -0.163106
408 1 0.381529 0.119037 0.250195 -0.0334055 0.0216043 -0.0282034
409 1 0.447224 0.185248 0.315091 -0.0350211 -0.0756701 0.0637212
410 1 0.369684 0.130314 0.369687 0.273041 -0.273042 0.273042
411 1 0.438276 0.18519 0.438386 0.0856557 -0.00302387 0.0830581
412 1 0.376594 0.123297 0.502029 -0.00880674 0.0103374 -0.059847
413 1 0.438172 0.187385 0.562941 -0.00713884 -0.00726758 0.0219274
414 1 0.375342 0.124599 0.625217 0.0134448 -0.0133329 0.0303271
415 1 0.437565 0.18746 0.687564 0.000976582 0.000870346 0.00154119
416 1 0.375063 0.124915 0.750026 -0.000404067 0.000973168 -8.34654e-05
417 1 0.437571 0.187449 0.812448 -0.00147578 0.00015659 0.00209806
418 1 0.375054 0.124979 0.875036 0.00254318 -0.00448615 -0.023853
419 1 0.438276 0.18705 0.936898 -0.046629 -0.000508195 0.0400462
420 1 0.376296 0.249097 0.99905 -0.0331414 -0.00579295 0.00884722
421 1 0.438089 0.314945 0.0620698 0.0971144 0.00388413 -0.0965097
422 1 0.381164 0.250637 0.119334 -0.0604679 -0.0503851 0.0421315
423 1 0.447134 0.315166 0.185479 -0.0289502 0.0619626 -0.0825334
424 1 0.432727 0.308733 0.308883 0.296844 0.131118 0.121975
425 1 0.380961 0.249806 0.381532 -0.0216042 0.0282035 -0.0334055
426 1 0.438515 0.313748 0.4386 -0.0311432 0.000661723 -0.00988456
427 1 0.376202 0.251045 0.501121 -0.022359 -0.00950523 -0.0123165
428 1 0.438306 0.312973 0.563168 -0.0622049 0.0065344 -0.0475446
429 1 0.37515 0.250037 0.624872 0.0195479 0.0136574 0.0550471
430 1 0.437511 0.31253 0.687575 -0.00164095 0.0004169 -0.00250253
431 1 0.374982 0.249971 0.750009 0.000943332 0.000621055 2.49162e-05
432 1 0.437504 0.312519 0.812505 0.00137415 9.18728e-07 -0.00216136
433 1 0.375179 0.249956 0.875129 0.0188129 -0.0130756 -0.05088
434 1 0.438039 0.312648 0.937277 -0.000619782 0.0047503 -0.0286853
435 1 0.376345 0.376577 0.998388 0.00363462 0.00115792 0.0497522
436 1 0.436501 0.436668 0.0635543 0.0932253 0.0949489 -0.0902546
437 1 0.369549 0.37021 0.13087 0.273063 0.250774 -0.292559
438 1 0.438414 0.438668 0.185477 0.0764337 0.0765291 -0.00223643
439 1 0.38126 0.382029 0.250463 -0.0166716 -0.0358225 0.0118535
440 1 0.438794 0.438905 0.314144 -0.0312832 -0.0234214 -0.00703182
441 1 0.375447 0.375394 0.37537 -0.045045 -0.0161128 0.00393943
442 1 0.438356 0.438311 0.438301 -0.112522 -0.105316 -0.0921719
443 1 0.373815 0.373868 0.499048 0.0556099 0.0489871 0.0567736
444 1 0.437195 0.437209 0.562336 0.00164688 0.00148667 -0.00045914
445 1 0.374845 0.37484 0.624805 0.00724306 0.00764289 0.029079
446 1 0.437402 0.437421 0.687482 0.00155137 0.00178534 0.00459255
447 1 0.374949 0.374966 0.749986 0.000380626 0.00110871 -0.000898943
448 1 0.437559 0.437588 0.812377 0.00108796 0.00206658 -0.00203046
449 1 0.375207 0.375282 0.87494 0.016187 0.0170319 -0.0355017