ITEM: TIMESTEP
0
ITEM: NUMBER OF ATOMS
1026
ITEM: BOX BOUNDS pp pp pp
0.0000000000000000e+00 2.2857118000000000e+01
0.0000000000000000e+00 2.2857118000000000e+01
0.0000000000000000e+00 2.2857118000000000e+01
ITEM: ATOMS id type xs ys zs fx fy fz
1 1 0.245023 0.242794 0.121848 0.126223 0.41452 -0.0616331
2 1 0.295482 0.3156 0.170498 -0.0292165 0.0540782 0.340648
3 1 0.223298 0.131172 0.217927 0.203852 -0.299605 0.247015
4 1 0.170496 0.204516 0.184401 0.340639 0.0292185 -0.0540778
5 1 0.368826 0.282074 0.2233 0.299606 -0.24702 0.203853
6 1 0.257204 0.378153 0.245026 -0.414537 0.0616311 0.126224
7 1 0.288437 0.140708 0.287763 -0.113248 0.0615566 -0.0483996
8 1 0.359291 0.212239 0.28844 -0.0615555 0.0483957 -0.113253
9 1 0.121845 0.254975 0.257207 -0.0616341 -0.126226 -0.414533
10 1 0.184398 0.329502 0.295485 -0.0540606 -0.340639 -0.0292327
11 1 0.28776 0.211561 0.359293 -0.0483988 0.11325 -0.0615605
12 1 0.217924 0.2767 0.36883 0.247022 -0.20385 0.299616
13 1 0.999493 0.999771 0.999632 -0.0059423 -0.00337919 -0.0045666
14 1 0.0618827 0.0623934 0.0620398 0.0112278 0.0241642 0.0117593
15 1 0.999792 0.999652 0.12483 -0.0183065 -0.0150945 -0.0162006
16 1 0.0623942 0.0620007 0.187004 -0.0735884 -0.0861788 -0.0206022
17 1 5.18364e-05 3.28332e-06 0.250121 -0.0271402 -0.011666 0.00831173
18 1 0.0624439 0.0625546 0.313147 -0.00259853 0.00700355 0.0131285
19 1 0.999973 0.999935 0.375194 -0.0160362 0.00480568 0.000755903
20 1 0.0623423 0.0622869 0.43785 0.0672282 0.0240973 -0.0458413
21 1 0.999875 0.999768 0.500204 0.0102547 0.00456752 -0.00644223
22 1 0.0625282 0.0625556 0.562557 -0.00465172 -0.00182228 0.00447876
23 1 0.999927 0.999909 0.625051 -0.00125385 0.00023354 0.00133276
24 1 0.0624123 0.0624106 0.68756 -0.000296332 -0.000389712 0.00294473
25 1 0.999836 0.999846 0.749898 -0.000272163 -0.000707067 0.00172262
26 1 0.0622872 0.0622984 0.81229 0.000353093 -0.000633453 0.00036057
27 1 0.999579 0.999635 0.874557 0.00354159 0.00245058 0.00157839
28 1 0.0618189 0.0618177 0.936747 0.00708267 0.00635505 -0.00160544
29 1 0.998916 0.124267 0.998881 0.0215101 0.00895358 0.0228621
30 1 0.0605733 0.186086 0.060643 0.0833904 0.0430822 0.0338606
31 1 0.00020053 0.125077 0.12512 -0.0668966 -0.0278042 -0.0196064
32 1 0.0607099 0.189513 0.187407 0.16866 -0.0147558 -0.0913954
33 1 0.99962 0.124844 0.249853 -0.00239986 0.00346988 0.00231064
34 1 0.0611059 0.186886 0.313248 -0.013328 0.104378 0.0164352
35 1 0.99961 0.124731 0.375527 -0.00409729 0.00335343 -0.00230779
36 1 0.0621915 0.1871 0.437769 -0.00964822 0.00512027 0.00127133
37 1 0.99978 0.124771 0.500296 -0.00629535 0.00476445 -0.00958522
38 1 0.0615935 0.186888 0.563381 0.0438257 0.0034586 -0.0444825
39 1 0.999607 0.124653 0.625402 0.00517678 0.00123492 -0.00674
40 1 0.0623595 0.187406 0.687631 0.00180886 -0.00174455 -0.00305128
41 1 0.999829 0.124903 0.74999 0.000209737 -0.00234571 -0.000403438
42 1 0.062341 0.187474 0.8124 -0.00167822 -0.00189234 -0.00465548
43 1 0.999608 0.124801 0.874586 0.00102091 -0.00119266 -0.000284055
44 1 0.0618561 0.187363 0.93699 -0.00856448 -0.0165848 -0.0386324
45 1 0.99872 0.249946 0.998559 0.0315158 0.00107498 0.0454826
46 1 0.059445 0.314948 0.0592386 0.0148309 -0.0207466 -0.0205621
47 1 0.998753 0.250302 0.123297 0.0445874 0.00833195 0.030635
48 1 0.0612691 0.312184 0.185688 -0.0799149 0.144678 0.0697153
49 1 0.999622 0.250904 0.250695 -0.014745 0.00752395 -0.0192696
50 1 0.0599057 0.316203 0.313542 -0.0345818 -0.0465536 -0.0127013
51 1 0.999112 0.250625 0.375923 0.0535147 -0.00237186 -0.0352711
52 1 0.0615659 0.313889 0.439268 -0.0276763 0.00983685 -0.00148772
53 1 0.999622 0.249947 0.500512 -0.010455 -0.00470223 -0.000968341
54 1 0.0614717 0.312551 0.563652 0.0416882 0.00403305 -0.0509985
55 1 0.999513 0.249881 0.625466 -0.00416686 0.00055585 0.00451136
56 1 0.0623578 0.312538 0.687613 -0.00383704 -0.00162725 0.00181003
57 1 0.999826 0.25001 0.749986 -0.00112102 -0.0012509 0.000558023
58 1 0.0623112 0.312635 0.812341 -0.00113892 -0.000877361 -0.00206522
59 1 0.999572 0.250032 0.874553 -0.0017731 -0.00295828 -0.000692607
60 1 0.0616144 0.313041 0.93668 -0.00932922 0.00907952 -0.0237143
61 1 0.998353 0.376296 0.998308 0.00885022 -0.0123094 0.0126157
62 1 0.0607872 0.439211 0.06079 -0.00901477 0.00901387 -0.00901483
63 1 0.998561 0.375754 0.123961 0.0160255 0.0210618 0.0067909
64 1 0.0592358 0.440553 0.185053 -0.0205595 -0.0148316 0.0207487
65 1 0.998262 0.376221 0.249165 0.090632 0.0256029 0.00411373
66 1 0.0606403 0.439425 0.313915 0.0338607 -0.0833905 -0.04308
67 1 0.99867 0.376212 0.376209 0.0412707 -0.0223152 -0.0165121
68 1 0.062037 0.438116 0.437608 0.011761 -0.0112291 -0.0241645
69 1 0.999268 0.375809 0.500959 -0.00773793 0.00700202 -0.00243435
70 1 0.0613179 0.438822 0.563829 0.011126 -0.00637048 -0.00645188
71 1 0.999458 0.3753 0.625533 -0.00319987 -0.000170899 0.00324401
72 1 0.0622882 0.437777 0.687698 -0.00521366 0.00474234 0.00561432
73 1 0.999788 0.375149 0.749953 -0.00215702 0.000462636 0.00111899
74 1 0.0623177 0.437724 0.812288 -0.00299795 0.00309581 -0.00452914
75 1 0.999452 0.37537 0.874427 -0.00352579 0.00123446 -0.00376336
76 1 0.0618241 0.438213 0.936585 -0.00788183 0.00762104 -0.0102191
77 1 0.998937 0.501062 0.998939 0.000734596 -0.000734715 0.000734485
78 1 0.0617853 0.563417 0.0618269 -0.00762082 0.010219 -0.00788165
79 1 0.998305 0.501645 0.123705 0.0126163 -0.00885075 0.0123097
80 1 0.0615832 0.563207 0.18718 -0.015853 0.0277126 -0.0157429
81 1 0.998556 0.501278 0.250055 0.0454813 -0.0315147 -0.00107493
82 1 0.0620088 0.562846 0.312834 -0.00948596 0.0228334 0.00751275
83 1 0.998878 0.501082 0.375735 0.0228613 -0.0215092 -0.00895355
84 1 0.062528 0.562626 0.437591 -0.0018402 0.00519489 -0.00194232
85 1 0.999629 0.500505 0.50023 -0.00456604 0.00594189 0.0033787
86 1 0.0623742 0.562734 0.562687 -0.00512283 0.00505422 0.00300699
87 1 0.999446 0.500662 0.625564 0.0024136 -0.00134767 -0.00175361
88 1 0.0623674 0.562801 0.687632 0.000643464 0.00173585 0.000774975
89 1 0.999774 0.500273 0.749964 -0.00298441 0.00277333 0.000177617
90 1 0.0622825 0.562835 0.812202 -0.00184614 0.00283582 -0.00216028
91 1 0.999525 0.500481 0.874442 -0.00303211 0.00280359 -0.00592159
92 1 0.0617851 0.563401 0.936592 0.00436873 -0.00173806 0.00157003
93 1 0.999517 0.625559 0.999528 -0.00280329 0.00592146 -0.0030319
94 1 0.0622742 0.687713 0.0623205 -0.00309562 0.00452918 -0.00299806
95 1 0.999489 0.625517 0.124726 -0.00524287 0.00622035 -0.00410765
96 1 0.0623212 0.687637 0.187463 -0.00120223 0.00201549 -0.000241018
97 1 0.999638 0.625337 0.250082 -0.00297186 0.00446639 0.000320018
98 1 0.0624551 0.687537 0.312551 0.000130425 0.00186529 0.0013934
99 1 0.999774 0.62527 0.375219 0.00116362 -0.000580408 0.00135848
100 1 0.0625891 0.687499 0.437462 -0.000586347 0.00141508 0.00110825
101 1 0.999977 0.625155 0.500065 -0.000700068 0.0012681 0.000879104
102 1 0.0624752 0.687519 0.562522 -0.000553593 -0.000294679 -0.000927818
103 1 0.999879 0.625176 0.625057 -0.00137418 0.00113819 0.000157325
104 1 0.0624119 0.687562 0.68744 0.000262813 0.000481005 -2.90191e-05
105 1 0.999797 0.625255 0.749883 -8.03954e-05 0.00139811 0.000149514
106 1 0.0623077 0.687711 0.812225 0.00108119 0.00031637 -0.000684148
107 1 0.999578 0.625478 0.874503 0.000276076 0.000521087 -0.000723238
108 1 0.0622128 0.687809 0.937123 -0.000706908 0.00100323 -0.0013641
109 1 0.999725 0.750037 0.999777 -0.00277319 -0.000177562 -0.00298425
110 1 0.0622217 0.812303 0.062291 -0.00474215 -0.00561415 -0.00521332
111 1 0.999815 0.75005 0.124953 -0.0023695 -0.000785907 -0.00069069
112 1 0.0624142 0.81241 0.187552 -0.00403119 -0.00219798 0.00175461
113 1 0.999907 0.750006 0.250067 -0.00150515 0.000119041 0.000590554
114 1 0.0624957 0.812406 0.312585 0.00204222 0.00281732 0.00195798
115 1 0.999974 0.749976 0.375072 0.000791951 0.000444659 0.00233969
116 1 0.0626106 0.812464 0.437399 -0.000869686 -0.00484237 0.00153806
117 1 5.42421e-05 0.749993 0.499954 -0.00074025 -0.00150054 0.00103308
118 1 0.0623649 0.812304 0.562571 8.84024e-05 0.00153563 -0.00143461
119 1 0.999906 0.749961 0.624982 0.000190211 0.000525314 -0.000639588
120 1 0.0623627 0.812376 0.68746 8.05978e-05 2.83134e-05 -8.95973e-05
121 1 0.99982 0.750038 0.749835 0.000879887 0.000425004 -0.000645153
122 1 0.0623051 0.812411 0.812301 0.00106821 5.85233e-05 -0.000120647
123 1 0.999715 0.750069 0.874692 0.000663452 -0.000288432 -0.000869325
124 1 0.0622136 0.812305 0.937157 0.00130251 -0.00123697 -0.00250589
125 1 0.999337 0.874437 0.999449 0.00134742 0.00175343 0.00241345
126 1 0.0611759 0.936172 0.0613207 0.00637003 0.00645138 0.0111257
127 1 0.999527 0.874556 0.124904 -0.00160612 -0.00193305 -0.000250177
128 1 0.0615778 0.936482 0.187679 0.0495968 0.0568541 -0.00347777
129 1 0.999638 0.874642 0.250202 -0.00526068 -0.0057192 -0.00143031
130 1 0.0617392 0.936768 0.313086 0.0523827 0.0529412 -0.00347654
131 1 0.999748 0.87469 0.375274 0.00426523 0.00615857 0.000771248
132 1 0.0627126 0.937592 0.437222 -0.00300965 -0.00410982 0.00370768
133 1 5.68182e-05 0.874954 0.499914 -0.00173019 -0.00175752 0.000869141
134 1 0.0622492 0.937193 0.56271 -0.00267847 -0.00174822 0.00255842
135 1 0.999869 0.874836 0.625023 -0.000681855 -0.000626859 0.000953351
136 1 0.0622594 0.937234 0.687602 0.000835074 0.00172639 -0.00145897
137 1 0.999783 0.874822 0.749888 0.000770106 0.000579673 -0.000302522
138 1 0.0622523 0.937219 0.812276 0.000826903 0.000628462 0.000926792
139 1 0.999639 0.874757 0.874688 0.000543392 0.00196578 0.00034166
140 1 0.0619624 0.936995 0.937002 -0.000238976 0.00207006 -0.000694292
141 1 0.124189 0.999042 0.999271 -0.00700146 0.00243519 -0.00773717
142 1 0.18611 0.0607329 0.0615687 -0.00983627 0.00148657 -0.0276782
143 1 0.122145 0.996942 0.122349 -0.00348017 -0.0710261 0.0062643
144 1 0.18257 0.0503745 0.182991 -0.0314066 -0.141566 -0.0738274
145 1 0.123511 0.999059 0.251479 0.0640328 -0.0279942 -0.0177527
146 1 0.191492 0.0659242 0.309304 -0.225302 -0.152613 0.0629828
147 1 0.125822 0.000681407 0.373995 -0.00931523 -0.0269801 0.0230261
148 1 0.18598 0.060804 0.439122 -0.00517063 -0.0291819 -0.0066438
149 1 0.124386 0.999362 0.500554 -0.00809534 -0.00628795 0.00993751
150 1 0.186805 0.0614407 0.563302 -0.00469652 0.0284093 -0.0116185
151 1 0.12461 0.999538 0.625411 6.77912e-05 0.00600563 -0.0061558
152 1 0.187368 0.0622696 0.687643 -0.001151 0.000879636 9.59924e-05
153 1 0.124846 0.999779 0.749991 -0.000489686 0.000193962 0.000328888
154 1 0.187374 0.0622804 0.812417 0.000625574 -0.000103662 -0.00118286
155 1 0.124713 0.999544 0.87462 0.00231896 0.00189517 0.0028851
156 1 0.187131 0.0617449 0.937036 -0.00113975 -7.37247e-05 -0.0116382
157 1 0.123786 0.123792 0.998672 0.0223151 0.0165122 0.0412716
158 1 0.183795 0.186459 0.0599084 0.0465529 0.0126992 -0.0345711
159 1 0.125836 0.124338 0.126338 0.0403954 0.142869 0.0530873
160 1 0.121392 0.124648 0.249442 0.0606749 0.164744 -0.0166569
161 1 0.18661 0.186668 0.311098 0.0139338 0.158375 0.0128162
162 1 0.125887 0.12534 0.375282 -0.00826648 -0.0864749 -0.0414793
163 1 0.19044 0.189178 0.434426 -0.143215 0.1178 0.131382
164 1 0.125456 0.125614 0.499715 0.0017419 0.00998783 0.0100842
165 1 0.187573 0.187417 0.562457 -0.00459179 0.000241609 -0.00752638
166 1 0.124992 0.124927 0.62505 -0.00412469 -0.00216075 0.0186364
167 1 0.187501 0.187447 0.687454 -0.00111277 -0.000366354 -0.000543219
168 1 0.124925 0.124926 0.749975 0.000422087 -0.000277372 0.00129948
169 1 0.187367 0.187415 0.81249 -0.000281095 0.000104523 -0.0018082
170 1 0.124677 0.124726 0.874732 -0.0024311 -0.00251173 -0.00320829
171 1 0.186894 0.187172 0.937204 -0.00858733 -0.00481005 -0.0340892
172 1 0.123777 0.250836 0.998265 -0.0256036 -0.00411327 0.0906356
173 1 0.187815 0.314314 0.0612719 -0.14468 -0.0697163 -0.0799175
174 1 0.119026 0.253978 0.11599 0.0319197 0.0173367 0.303544
175 1 0.183511 0.316487 0.183514 0.102497 -0.102493 0.102495
176 1 0.119907 0.25212 0.375659 0.0114059 -0.105432 -0.0808497
177 1 0.182988 0.317429 0.449627 -0.0738236 0.0314028 0.14157
178 1 0.123221 0.248623 0.501224 0.087293 0.0422673 -0.0121812
179 1 0.187129 0.312809 0.563991 -0.0175308 0.0152395 -0.199338
180 1 0.124767 0.249839 0.624956 -0.0169862 -0.0164851 0.0561024
181 1 0.18744 0.31251 0.68755 0.00213689 -0.00155411 -0.00852155
182 1 0.124931 0.249998 0.74997 0.000127921 -0.001207 0.00139888
183 1 0.187444 0.312546 0.812516 -0.000852435 0.000753805 -0.00542701
184 1 0.124746 0.25013 0.874817 -0.00412825 0.000531989 -0.00280377
185 1 0.187363 0.312838 0.937458 0.000543538 0.0109878 -0.0635647
186 1 0.124244 0.376041 0.998563 -0.0210612 -0.00679247 0.0160281
187 1 0.18505 0.440763 0.0594478 0.0207471 0.0205624 0.014829
188 1 0.122194 0.377804 0.122197 0.046387 -0.0463885 0.0463865
189 1 0.185685 0.438729 0.187818 0.069717 0.0799128 -0.144672
190 1 0.115987 0.380972 0.246023 0.303551 -0.0319216 -0.0173359
191 1 0.187404 0.439288 0.310488 -0.0913968 -0.168663 0.0147514
192 1 0.126335 0.374162 0.375663 0.0530916 -0.0403982 -0.142866
193 1 0.187002 0.437604 0.438 -0.0206034 0.0735859 0.0861771
194 1 0.122346 0.377854 0.503059 0.00626366 0.00347995 0.0710257
195 1 0.187676 0.438421 0.563519 -0.00347812 -0.0495978 -0.0568549
196 1 0.12465 0.375387 0.625329 -0.0142669 0.0165161 0.0222957
197 1 0.18755 0.437584 0.687591 0.00175454 0.00403131 0.00219814
198 1 0.124932 0.375097 0.749985 -0.000899432 0.00107415 2.02067e-05
199 1 0.18746 0.437677 0.812365 -0.000241001 0.00120221 -0.00201534
200 1 0.12484 0.37526 0.874744 -0.00496094 0.00245442 -0.00971029
201 1 0.187177 0.438415 0.936794 -0.0157434 0.0158534 -0.0277129
202 1 0.123703 0.501693 0.998356 0.0123094 -0.0126159 0.00885073
203 1 0.186958 0.563321 0.0616172 -0.00907914 0.0237151 -0.00933012
204 1 0.123958 0.501438 0.124247 0.00679224 -0.0160269 -0.0210614
205 1 0.187161 0.562543 0.187366 -0.0109879 0.0635644 0.000543531
206 1 0.123294 0.501246 0.249699 0.0306368 -0.0445908 -0.00833187
207 1 0.187511 0.562476 0.31215 -0.00593343 0.0098057 -0.00066112
208 1 0.125117 0.499798 0.374924 -0.0196063 0.0668968 0.0278037
209 1 0.187401 0.562502 0.437598 0.000592354 0.00371083 -0.000563249
210 1 0.124827 0.500206 0.500349 -0.0162011 0.0183066 0.0150948
211 1 0.18756 0.562592 0.562594 0.00267768 0.00137542 -0.000371692
212 1 0.124901 0.500472 0.625445 -0.000250265 0.00160593 0.00193281
213 1 0.18754 0.562694 0.687619 0.000278795 0.00203687 0.00080572
214 1 0.124951 0.500183 0.749951 -0.000690558 0.00236961 0.000786012
215 1 0.187479 0.562746 0.812282 0.000324442 0.00222946 -0.00241481
216 1 0.124723 0.500509 0.874484 -0.00410772 0.00524299 -0.0062204
217 1 0.187286 0.563299 0.936718 0.00185338 -0.00163112 0.000772324
218 1 0.124628 0.625574 0.999455 -0.00123459 0.00376347 -0.00352603
219 1 0.187363 0.68766 0.062314 0.000877377 0.00206537 -0.00113927
220 1 0.124738 0.625258 0.124843 -0.00245448 0.00971009 -0.00496105
221 1 0.187452 0.687485 0.187447 -0.000753863 0.00542715 -0.000852424
222 1 0.124756 0.625103 0.249937 -4.76691e-05 0.00228151 -0.00112186
223 1 0.187581 0.687422 0.312379 -0.000107193 0.00154159 0.00024011
224 1 0.125076 0.624916 0.374917 -0.00142116 0.00787774 0.00343066
225 1 0.187542 0.68743 0.437449 0.000469333 -0.000830844 -0.00107205
226 1 0.124997 0.625052 0.500073 0.00147537 -0.00197492 -0.00229256
227 1 0.187514 0.687456 0.562518 0.000794211 -0.000900204 -0.0010724
228 1 0.124994 0.625085 0.625038 -0.000166149 0.000381769 0.000353654
229 1 0.187486 0.687509 0.687471 0.000404779 0.000222506 -0.000243202
230 1 0.12494 0.625185 0.749905 5.81661e-05 0.0015709 -0.000133105
231 1 0.187455 0.687661 0.812273 0.000746739 0.000225895 -0.000401097
232 1 0.124788 0.625444 0.874534 0.00202253 0.00025624 -0.000736882
233 1 0.187405 0.687748 0.937182 0.000729988 0.00113102 -0.00135934
234 1 0.12485 0.750048 0.999791 -0.000462518 -0.00111907 -0.00215698
235 1 0.18746 0.812388 0.0623606 0.00162712 -0.0018099 -0.0038369
236 1 0.124901 0.750016 0.124935 -0.00107411 -2.03381e-05 -0.000899444
237 1 0.187488 0.812451 0.187443 0.0015543 0.00852172 0.002137
238 1 0.125015 0.750023 0.250005 -2.66624e-05 -0.00177908 0.000969105
239 1 0.187666 0.81258 0.312415 -0.00142054 -0.000603558 0.000826493
240 1 0.125126 0.749972 0.374911 -6.61432e-05 -0.000631041 0.000896972
241 1 0.187484 0.812369 0.437545 -0.00153758 -0.000812521 -0.00132931
242 1 0.125001 0.7499 0.499999 -0.00110853 5.13516e-05 -0.00119619
243 1 0.187406 0.812248 0.562645 0.00111716 -0.00164113 0.00119364
244 1 0.124936 0.749902 0.625012 0.000558978 -0.000403695 0.000273969
245 1 0.187418 0.81233 0.687528 0.000368337 -0.000131321 -0.000195337
246 1 0.124901 0.749997 0.749874 0.000746909 0.000155241 -0.000353093
247 1 0.187429 0.812397 0.812351 0.000836257 0.000210501 -5.02204e-05
248 1 0.124859 0.750048 0.874728 0.000457714 -0.000272101 -0.0010144
249 1 0.187427 0.812318 0.937208 0.00132082 -0.00071196 -0.00176251
250 1 0.124699 0.874468 0.999461 0.000170744 -0.0032442 -0.00320002
251 1 0.187447 0.936349 0.0614745 -0.00403299 0.0509974 0.0416872
252 1 0.124611 0.874672 0.124652 -0.0165162 -0.0222966 -0.0142668
253 1 0.187189 0.93601 0.187132 -0.0152385 0.199339 -0.0175298
254 1 0.124904 0.875116 0.250164 -0.016623 -0.0563161 0.0175363
255 1 0.187921 0.937776 0.312267 -0.0106242 -0.00320942 -0.00232661
256 1 0.125223 0.875126 0.374863 -0.00603105 -0.0248478 0.00518746
257 1 0.186937 0.936784 0.438372 -0.0107058 0.0161938 -0.037049
258 1 0.124706 0.874597 0.500284 -0.00116641 0.00599969 -0.00633672
259 1 0.1873 0.937047 0.562882 -0.0044898 -0.00712361 0.00668933
260 1 0.124833 0.874738 0.625137 -0.000513546 -0.00137516 0.000867498
261 1 0.187356 0.937185 0.687683 0.000769154 -0.000861563 0.000809518
262 1 0.124854 0.874792 0.749951 0.000990809 -1.37063e-05 0.000188943
263 1 0.187421 0.937243 0.812356 0.000417263 0.000760931 0.00164727
264 1 0.124819 0.874762 0.874737 0.00115863 5.09119e-05 -0.000217881
265 1 0.187385 0.937093 0.937134 0.002601 0.00164123 -0.000134219
266 1 0.250052 0.999489 0.999625 0.00470204 0.000969258 -0.0104536
267 1 0.312898 0.062232 0.0621942 -0.00512189 -0.0012699 -0.00964643
268 1 0.251375 0.998777 0.123224 -0.0422662 0.0121804 0.0872929
269 1 0.31082 0.0655752 0.190443 -0.117795 -0.131385 -0.143217
270 1 0.250193 0.000755462 0.249437 -0.0624607 -0.0516064 -0.0591763
271 1 0.316417 0.0507538 0.315829 0.0573888 -0.0372979 0.0748806
272 1 0.249112 0.998181 0.376853 0.0233967 0.041797 -0.0505152
273 1 0.315155 0.0607063 0.439126 -0.00914727 -0.074219 0.0798488
274 1 0.250175 0.99905 0.500864 -0.00778437 0.0277038 -0.0228426
275 1 0.312719 0.0612251 0.563508 0.0110848 0.0244285 0.00147689
276 1 0.249885 0.999425 0.625501 0.00141058 -0.00163133 0.00180555
277 1 0.312548 0.0622558 0.687672 -0.0012518 -0.00325245 0.00353091
278 1 0.249965 0.999789 0.750043 0.000275424 7.14348e-05 0.000982973
279 1 0.312503 0.0623367 0.812463 -0.000873734 0.00157465 0.00178032
280 1 0.249997 0.999669 0.874767 -0.00104853 0.00285308 0.00343469
281 1 0.312578 0.0620826 0.937256 -0.00457745 0.00462647 -0.00601639
282 1 0.249374 0.124078 0.999115 0.00237113 0.0352717 0.0535161
283 1 0.313112 0.186754 0.0611086 -0.104376 -0.0164371 -0.0133303
284 1 0.247878 0.124342 0.11991 0.105419 0.0808616 0.0114109
285 1 0.313331 0.188903 0.186613 -0.158359 -0.0128104 0.0139477
286 1 0.250141 0.116914 0.382141 -0.0440699 0.0736259 -0.0224823
287 1 0.315826 0.183582 0.449247 0.0748841 -0.0573935 0.0373022
288 1 0.248914 0.122679 0.50183 0.0285922 0.0605344 -0.0230157
289 1 0.312745 0.187016 0.564092 0.000908275 -0.00542045 -0.192419
290 1 0.249891 0.124539 0.625065 -0.0182264 -0.014398 0.044819
291 1 0.312513 0.18735 0.687596 -0.00169147 0.00165181 -0.00861178
292 1 0.249937 0.124867 0.750009 -0.00073994 0.000204099 0.00184668
293 1 0.312411 0.187408 0.812564 -0.00024718 2.68233e-05 4.65575e-05
294 1 0.249839 0.124738 0.874917 2.01707e-05 0.00192519 0.0017747
295 1 0.312369 0.187255 0.9375 0.00175939 -0.00284969 -0.0167749
296 1 0.249095 0.249306 0.999625 -0.00752446 0.019271 -0.0147449
297 1 0.310485 0.312594 0.0607127 0.0147595 0.0914014 0.168656
298 1 0.250685 0.249313 0.250688 -0.182367 0.182375 -0.182375
299 1 0.311095 0.313388 0.313333 0.0128087 -0.0139389 -0.158365
300 1 0.309301 0.308507 0.434077 0.0629748 0.225301 0.152608
301 1 0.249434 0.249805 0.499246 -0.0591759 0.0624608 0.0516125
302 1 0.312264 0.312077 0.562225 -0.00232639 0.010624 0.0032097
303 1 0.249944 0.249865 0.624688 -0.00278256 0.00285741 0.085626
304 1 0.312412 0.312332 0.687421 0.000826451 0.00142052 0.000603641
305 1 0.249928 0.249924 0.749995 -0.000414681 -7.05907e-05 0.000651867
306 1 0.312377 0.312417 0.812579 0.000240256 0.000107173 -0.00154167
307 1 0.249769 0.249892 0.875086 -0.000446768 -9.04981e-06 -0.00743305
308 1 0.312147 0.312487 0.937525 -0.000661394 0.00593382 -0.00980638
309 1 0.249696 0.376704 0.998755 -0.00833238 -0.0306395 0.044591
310 1 0.313913 0.439358 0.0605761 -0.0430816 -0.0338593 0.0833894
311 1 0.246021 0.384011 0.119029 -0.0173362 -0.30354 0.0319145
312 1 0.313539 0.440093 0.183798 -0.0126994 0.0345723 0.0465537
313 1 0.313245 0.438892 0.313115 0.0164368 0.0133311 -0.104376
314 1 0.249439 0.378606 0.375353 -0.0166522 -0.0606745 -0.164738
315 1 0.313144 0.437554 0.437446 0.0131288 0.00260043 -0.00700283
316 1 0.251476 0.376487 0.500942 -0.0177552 -0.0640342 0.0279918
317 1 0.313084 0.438259 0.563233 -0.00347675 -0.052382 -0.0529402
318 1 0.250162 0.375095 0.624885 0.0175363 0.016623 0.0563159
319 1 0.312582 0.437503 0.687595 0.00195801 -0.00204206 -0.00281719
320 1 0.250002 0.374984 0.749978 0.000969162 2.64979e-05 0.00177903
321 1 0.312548 0.437543 0.812464 0.00139347 -0.000130521 -0.00186527
322 1 0.249934 0.375243 0.874898 -0.00112214 4.75906e-05 -0.00228155
323 1 0.312831 0.43799 0.937155 0.00751332 0.00948667 -0.0228342
324 1 0.250052 0.501442 0.998723 -0.00107508 -0.0454828 0.0315168
325 1 0.312635 0.563011 0.0618589 0.0165842 0.0386334 -0.00856504
326 1 0.249162 0.501736 0.12378 0.00411255 -0.0906361 -0.0256042
327 1 0.312826 0.562797 0.186897 0.00481049 0.0340906 -0.0085864
328 1 0.250692 0.500376 0.249098 -0.0192693 0.0147431 -0.00752414
329 1 0.312743 0.562501 0.312372 0.00284938 0.0167747 0.00175927
330 1 0.24985 0.500378 0.375157 0.00231043 0.00239819 -0.00347144
331 1 0.312633 0.562551 0.437583 -0.00171501 0.00176205 -0.00316231
332 1 0.250118 0.499947 0.499998 0.0083117 0.0271405 0.011666
333 1 0.312596 0.562568 0.562551 0.00186737 -0.000485445 -0.0026239
334 1 0.250199 0.500361 0.625359 -0.00143041 0.00526066 0.00571913
335 1 0.31263 0.562637 0.687624 -0.000666793 0.00203569 0.00101969
336 1 0.250064 0.500091 0.749995 0.000590654 0.00150521 -0.000119031
337 1 0.312608 0.562678 0.812333 0.000267344 0.000976734 -0.000637605
338 1 0.250079 0.500361 0.874664 0.000320172 0.00297194 -0.00446632
339 1 0.312727 0.563165 0.936838 -0.00168587 0.0015405 0.000247631
340 1 0.249966 0.625448 0.999574 0.00295824 0.000692558 -0.00177312
341 1 0.312525 0.687602 0.0623437 0.00189249 0.00465545 -0.00167815
342 1 0.249868 0.625184 0.124749 -0.000531953 0.00280286 -0.00412851
343 1 0.312583 0.687511 0.187369 -0.000104473 0.0018083 -0.000281172
344 1 0.250106 0.624915 0.249771 9.19116e-06 0.00743296 -0.000446652
345 1 0.31259 0.687437 0.312414 -2.69732e-05 -4.6438e-05 -0.000247162
346 1 0.250049 0.624906 0.374918 -0.000355217 0.000472714 -0.00120826
347 1 0.312542 0.687448 0.43749 -0.000259652 -0.00172374 -0.00138787
348 1 0.250026 0.62497 0.5 0.00129739 -0.000626232 -0.00108012
349 1 0.312519 0.687429 0.562546 0.000973394 -0.000120001 -0.000624422
350 1 0.250051 0.625034 0.625043 0.0008132 -0.000478157 -0.000750797
351 1 0.312547 0.687474 0.687509 0.000439902 -0.000168949 -0.000133523
352 1 0.250046 0.625124 0.749943 0.000587076 0.0010997 -0.000351829
353 1 0.312573 0.687623 0.812315 0.000389618 0.00013764 -0.000317267
354 1 0.250023 0.625363 0.874615 0.00124847 0.000274088 -0.00068705
355 1 0.312563 0.687709 0.937222 0.00180704 3.42454e-05 -0.000400121
356 1 0.249988 0.750015 0.999829 0.00125098 -0.000558124 -0.00112102
357 1 0.312592 0.81237 0.0623623 0.00174437 0.00305127 0.00180886
358 1 0.250001 0.750031 0.124934 0.00120694 -0.00139895 0.000128104
359 1 0.312551 0.812547 0.187504 0.000366199 0.00054353 -0.00111261
360 1 0.250074 0.750006 0.249931 7.05974e-05 -0.000651882 -0.00041453
361 1 0.312648 0.812405 0.312516 -0.00165179 0.0086122 -0.00169142
362 1 0.25006 0.749958 0.374958 -0.000291312 -0.00164042 9.45847e-05
363 1 0.312581 0.812332 0.437622 -0.000295785 -0.00432938 0.00282544
364 1 0.250008 0.749873 0.500031 0.000338321 -0.000663666 -0.000253452
365 1 0.312528 0.81218 0.562748 0.00040102 -0.00104944 0.000622559
366 1 0.249986 0.749859 0.625065 0.000236262 -0.000303264 5.93926e-05
367 1 0.312524 0.812297 0.687594 0.000337735 -0.000562971 4.64172e-06
368 1 0.249997 0.749966 0.74992 0.000545016 -0.000175339 -0.000153125
369 1 0.312551 0.812389 0.812395 0.000628013 0.000129482 0.000585191
370 1 0.250002 0.750023 0.874773 0.000760613 -0.000167254 -0.00048973
371 1 0.312611 0.812321 0.937238 -0.000364214 -0.000223766 -0.000738258
372 1 0.250118 0.874535 0.999516 -0.000555956 -0.00451131 -0.00416693
373 1 0.31311 0.93662 0.0615963 -0.00345876 0.0444826 0.0438258
374 1 0.250159 0.875045 0.12477 0.0164852 -0.0561022 -0.0169861
375 1 0.312581 0.937544 0.187575 -0.000241702 0.00752632 -0.00459188
376 1 0.250134 0.875313 0.249947 -0.00285742 -0.0856261 -0.00278254
377 1 0.312982 0.935909 0.312748 0.00542023 0.19242 0.000908237
378 1 0.250015 0.874994 0.375262 -0.0176879 -0.0466751 0.0154727
379 1 0.312753 0.936574 0.438579 0.0148801 -0.00993791 -0.0172718
380 1 0.249927 0.874512 0.500426 0.00250647 -0.0033532 0.00282155
381 1 0.31264 0.936795 0.563152 -0.00152739 -0.00477067 0.00470637
382 1 0.249926 0.874652 0.625255 -0.00025303 -0.000983641 0.000109215
383 1 0.312538 0.937137 0.687766 -0.000150786 -0.000796244 0.000748149
384 1 0.249972 0.874779 0.750013 0.000270185 -3.03714e-05 0.000262661
385 1 0.312557 0.937275 0.812416 -0.000508176 0.00147277 0.00164458
386 1 0.25001 0.874783 0.874789 0.00058915 0.00115052 0.00113059
387 1 0.312642 0.937191 0.937205 0.000986887 0.00413471 0.0024056
388 1 0.375227 0.999705 0.999782 -0.00476504 0.00958596 -0.00629471
389 1 0.437711 0.0621506 0.062345 -0.0240978 0.0458409 0.067228
390 1 0.374385 0.000286189 0.125459 -0.00998709 -0.0100844 0.00174203
391 1 0.439194 0.0608794 0.185982 0.0291822 0.00664245 -0.00517136
392 1 0.37732 0.998171 0.248916 -0.0605348 0.0230166 0.0285928
393 1 0.439292 0.0608753 0.315158 0.0742184 -0.0798485 -0.00914648
394 1 0.377532 0.997099 0.377384 -0.0204007 0.0151657 -0.0193843
395 1 0.43756 0.0624382 0.437563 0.0373289 -0.037329 0.0373289
396 1 0.376096 0.998502 0.501464 0.0120624 0.0348652 -0.0367135
397 1 0.438727 0.061235 0.563809 -0.00775722 0.00797384 0.0140333
398 1 0.375331 0.999316 0.625667 0.000281132 -0.000662877 0.000363516
399 1 0.437762 0.0622167 0.68783 0.00208463 -0.00262398 0.00557079
400 1 0.375093 0.999789 0.750103 -0.000170818 -0.000179529 0.00174195
401 1 0.437595 0.0623793 0.81251 -0.00117857 0.000514792 0.00100795
402 1 0.375134 0.999768 0.874829 -0.00393941 0.00376583 0.00474692
403 1 0.437724 0.0622222 0.937286 -0.00591721 0.00452648 0.0028321
404 1 0.375268 0.124474 0.999612 -0.00335355 0.0023076 -0.00409715
405 1 0.437444 0.186854 0.0624467 -0.00700301 -0.0131289 -0.00260027
406 1 0.374659 0.124719 0.12589 0.0864768 0.0414775 -0.00826993
407 1 0.434074 0.190697 0.191494 0.15261 -0.0629823 -0.225301
408 1 0.383085 0.11786 0.250144 -0.0736262 0.0224831 -0.0440694
409 1 0.449245 0.184172 0.316419 0.0372969 -0.0748791 0.0573899
410 1 0.372028 0.12797 0.372031 0.201076 -0.201077 0.20108
411 1 0.439123 0.184843 0.439295 0.079849 0.00914709 0.0742191
412 1 0.377381 0.122466 0.502902 -0.0193862 0.0204021 -0.0151674
413 1 0.438576 0.187246 0.563428 -0.0172711 -0.0148802 0.00993821
414 1 0.375388 0.12453 0.625349 0.0164281 -0.0166666 0.0280986
415 1 0.437619 0.187417 0.687669 0.00282531 0.000295723 0.00432927
416 1 0.37504 0.124884 0.750075 4.62942e-05 -0.000245452 0.00205401
417 1 0.437487 0.187456 0.812553 -0.00138794 0.000259629 0.0017239
418 1 0.375007 0.124858 0.874957 -0.000351053 6.14935e-05 0.00200835
419 1 0.43758 0.187365 0.93745 -0.00316239 0.00171512 -0.00176191
420 1 0.375155 0.250148 0.999623 -0.00347249 -0.00230971 -0.00239682
421 1 0.437998 0.312997 0.062397 0.086177 0.0206028 -0.0735878
422 1 0.37535 0.25056 0.121395 -0.164738 0.0166505 0.0606718
423 1 0.449624 0.31701 0.182572 0.141566 0.0738288 -0.03141
424 1 0.434423 0.309559 0.310823 0.131385 0.143217 -0.117792
425 1 0.382138 0.249857 0.383087 -0.0224865 0.0440703 -0.0736269
426 1 0.439119 0.314019 0.439197 -0.00664101 0.00517072 0.0291811
427 1 0.37685 0.250887 0.50182 -0.050517 -0.0233957 -0.0417974
428 1 0.438369 0.313061 0.563217 -0.0370474 0.0107053 -0.0161925
429 1 0.375259 0.249983 0.625007 0.0154726 0.0176879 0.0466746
430 1 0.437542 0.312514 0.687632 -0.0013295 0.00153762 0.000812523
431 1 0.374955 0.249938 0.750043 9.45163e-05 0.000291211 0.0016404
432 1 0.437447 0.312456 0.812571 -0.00107214 -0.000469491 0.000830927
433 1 0.374915 0.249949 0.875095 -0.00120842 0.000355078 -0.000472631
434 1 0.437595 0.312597 0.937499 -0.00056323 -0.000592318 -0.00371106
435 1 0.374921 0.374881 0.000203327 0.0278042 0.0196064 -0.066896
436 1 0.437605 0.437961 0.0618855 -0.0241646 -0.0117596 0.011228
437 1 0.375661 0.373663 0.125839 -0.142866 -0.0530871 0.0403928
438 1 0.439265 0.438432 0.186112 -0.00148831 0.0276783 -0.00983639
439 1 0.375656 0.380091 0.247881 -0.0808568 -0.0114124 0.105423
440 1 0.437766 0.437807 0.312901 0.00126896 0.0096469 -0.00512101
441 1 0.375279 0.374112 0.374661 -0.0414757 0.00826868 0.086476
442 1 0.437848 0.437656 0.437714 -0.0458404 -0.0672275 -0.0240985
443 1 0.373992 0.374176 0.49932 0.0230237 0.00931423 0.0269789
444 1 0.437219 0.437286 0.562409 0.00370783 0.00300974 0.00411009
445 1 0.37486 0.374775 0.624875 0.00518728 0.006031 0.0248476
446 1 0.437397 0.437388 0.687537 0.00153814 0.000869673 0.00484238
447 1 0.374908 0.374872 0.750029 0.000897063 6.61686e-05 0.000631147