ITEM: TIMESTEP
0
ITEM: NUMBER OF ATOMS
1026
ITEM: BOX BOUNDS pp pp pp
0.0000000000000000e+00 2.2857118000000000e+01
0.0000000000000000e+00 2.2857118000000000e+01
0.0000000000000000e+00 2.2857118000000000e+01
ITEM: ATOMS id type xs ys zs fx fy fz
1 1 0.238268 0.231601 0.125908 0.288833 -0.0889903 -0.0748649
2 1 0.28998 0.308139 0.159741 -0.0299168 0.204475 0.131928
3 1 0.222068 0.138028 0.212832 0.16095 0.0863088 0.16936
4 1 0.159738 0.210018 0.191862 0.131928 0.0299323 -0.204477
5 1 0.36197 0.287169 0.222071 -0.0863208 -0.169354 0.160947
6 1 0.268397 0.374093 0.238271 0.0890105 0.0748547 0.288823
7 1 0.286778 0.141078 0.285481 -0.150569 0.143273 -0.0680281
8 1 0.35892 0.21452 0.286781 -0.143271 0.0680269 -0.15057
9 1 0.125905 0.26173 0.2684 -0.0748584 -0.288828 0.089002
10 1 0.191859 0.34026 0.289983 -0.204482 -0.131925 -0.0299298
11 1 0.285479 0.21322 0.358923 -0.0680254 0.150566 -0.143274
12 1 0.21283 0.27793 0.361974 0.169356 -0.160955 -0.0863042
13 1 0.99965 0.999869 0.999824 -0.00664434 -0.00623818 -0.00653726
14 1 0.0623789 0.0626812 0.0625753 0.00511945 0.0213912 -0.00502211
15 1 0.99975 0.999615 0.124817 0.00549182 0.00801873 -0.0080023
16 1 0.0626488 0.0624414 0.186592 -0.0864097 -0.101043 -0.0158818
17 1 3.70262e-05 0.999964 0.249969 -0.0169084 -0.00136853 0.00197861
18 1 0.0620114 0.0622062 0.313402 0.0337286 0.00158157 0.00246048
19 1 0.999879 0.99978 0.375261 -0.0224332 -0.00448386 0.00579302
20 1 0.0619672 0.0619933 0.438185 0.083289 0.0232552 -0.0552862
21 1 0.999749 0.999631 0.500334 0.00996884 0.000870806 -0.00418781
22 1 0.0625636 0.0624978 0.562596 -0.00377214 -0.0030788 0.00461088
23 1 0.999929 0.999877 0.625071 -0.00121434 -0.00123794 0.00266819
24 1 0.0624121 0.0623928 0.687567 -0.000301438 -0.000591083 0.00325609
25 1 0.999823 0.999828 0.74989 -0.000483994 -0.000935338 0.00136843
26 1 0.0622645 0.0622785 0.812272 -0.000678881 -0.00110392 -0.0010287
27 1 0.999508 0.999562 0.874491 0.00306162 0.00148309 -0.000164966
28 1 0.0616186 0.0616116 0.936567 0.00739993 0.00533949 -0.00813555
29 1 0.998747 0.124067 0.99868 0.0376391 0.00120575 0.0402547
30 1 0.060417 0.185311 0.0603458 0.0642826 0.0487603 0.00622626
31 1 0.000187129 0.125075 0.125144 -0.0391535 -0.0242889 -0.00916043
32 1 0.0591605 0.189539 0.188624 -0.0413348 -0.139773 -0.0956774
33 1 0.998888 0.124002 0.250141 0.067882 0.0754628 0.0104738
34 1 0.061282 0.186872 0.313061 -0.0727643 0.0901116 0.0587832
35 1 0.999447 0.124592 0.37549 -0.0182684 0.000386325 0.00656271
36 1 0.0613317 0.186314 0.438579 -0.00470039 0.00653207 0.0308006
37 1 0.999482 0.124477 0.500658 -0.0111749 0.00134883 -0.00243293
38 1 0.0615916 0.186869 0.563377 0.0465118 -0.00218781 -0.0391972
39 1 0.999602 0.124633 0.625438 0.00521145 -0.000493954 -0.0056101
40 1 0.0623694 0.18741 0.687634 0.00152578 -0.00100334 -0.00244262
41 1 0.999833 0.124912 0.749998 3.59791e-05 -0.00182631 -0.000403017
42 1 0.0623706 0.187495 0.812433 -0.00110828 -0.000998307 -0.00494944
43 1 0.999557 0.124793 0.87454 3.41758e-05 -0.00142375 -0.00153988
44 1 0.0617518 0.187404 0.936907 0.000448869 -0.0174196 -0.0342247
45 1 0.998831 0.249969 0.998528 0.0383681 -0.00254756 0.0578406
46 1 0.0597887 0.314949 0.0594843 0.0510663 -0.0226282 -0.0490503
47 1 0.999364 0.250152 0.123133 -0.00993177 0.0186872 0.0418818
48 1 0.064074 0.30912 0.186516 0.0477423 0.0332506 0.0335797
49 1 0.000144792 0.250843 0.251249 -0.0905735 0.0141293 -0.0214843
50 1 0.0563153 0.316575 0.315063 0.1997 -0.0047922 0.065321
51 1 0.998322 0.250034 0.376748 0.0707378 -0.0049119 -0.0463998
52 1 0.0611438 0.31423 0.439628 -0.0383756 -0.00866127 -0.0190705
53 1 0.99932 0.24992 0.50085 0.00475596 -0.000198446 -0.0154789
54 1 0.061667 0.312566 0.563378 0.0233346 0.00540526 -0.0268043
55 1 0.999557 0.249923 0.625446 -0.00287671 0.00177546 0.00354748
56 1 0.0623832 0.31254 0.687592 -0.00156172 -0.000843535 0.000707171
57 1 0.999842 0.250022 0.749991 -0.000236618 -0.000759581 0.000445376
58 1 0.0623458 0.312645 0.81237 0.0013525 0.0010218 -0.000541764
59 1 0.999552 0.250065 0.874518 -0.0026651 -0.00318647 -0.000904828
60 1 0.061509 0.313201 0.93657 0.0220867 0.0111526 0.00277369
61 1 0.998609 0.376143 0.998551 -0.00592389 -0.00559849 0.00156787
62 1 0.0608398 0.439159 0.0608426 0.0275557 -0.0275567 0.0275545
63 1 0.999245 0.374991 0.124506 0.0361254 0.0174846 0.0424752
64 1 0.0594815 0.44021 0.185052 -0.0490499 -0.0510643 0.0226279
65 1 0.997802 0.376108 0.248694 0.13237 0.0347124 0.0206044
66 1 0.060343 0.439581 0.31469 0.00622721 -0.0642837 -0.0487602
67 1 0.998 0.376612 0.376804 0.0190849 -0.0087566 -0.00475482
68 1 0.0625725 0.437619 0.43732 -0.00501966 -0.00512105 -0.0213931
69 1 0.998991 0.375965 0.50116 0.0185485 0.00444687 -0.0181957
70 1 0.0616084 0.438534 0.563494 0.0106055 -0.00677255 0.00073644
71 1 0.999546 0.375286 0.625451 -0.00211753 0.000183152 0.00370488
72 1 0.0623269 0.437735 0.687681 -0.00136605 0.00180636 0.00186636
73 1 0.999814 0.375148 0.749955 -0.000563194 0.000824817 0.00132878
74 1 0.0623857 0.437672 0.812346 -0.00045161 0.00113762 -0.00256568
75 1 0.999457 0.375423 0.874428 -0.000616855 0.00201339 -0.00205206
76 1 0.0620753 0.437968 0.936849 -0.00413949 0.00421687 -0.0049614
77 1 0.999018 0.500981 0.99902 0.00342982 -0.00343001 0.00342965
78 1 0.0620303 0.563152 0.0620781 -0.00421674 0.00496139 -0.00413947
79 1 0.998548 0.50139 0.123858 0.00156843 0.00592341 0.00559885
80 1 0.0616782 0.563048 0.187257 -0.00932686 0.019613 -0.0146284
81 1 0.998525 0.501167 0.250032 0.0578407 -0.0383682 0.00254736
82 1 0.0620564 0.562713 0.312805 -0.0194785 0.0311585 0.01164
83 1 0.998677 0.501251 0.375934 0.0402529 -0.0376373 -0.00120578
84 1 0.0625492 0.562561 0.437591 -0.00137721 0.0146384 -0.00129953
85 1 0.999821 0.500348 0.500132 -0.00653701 0.00664435 0.00623802
86 1 0.0623685 0.562734 0.562697 -0.00369086 0.000523559 0.00115437
87 1 0.999581 0.500541 0.625461 0.00324511 -0.00151904 -0.00124687
88 1 0.0623938 0.562748 0.68761 0.000656927 0.00021559 0.000316053
89 1 0.999817 0.500237 0.749982 -0.000950481 0.00118184 -0.000430242
90 1 0.062306 0.562782 0.812241 -0.00103068 0.000657532 -0.000362029
91 1 0.999629 0.500376 0.874558 -0.00144061 0.00117486 -0.00407941
92 1 0.0618801 0.563266 0.936717 0.00427847 -0.00262784 0.00122675
93 1 0.999622 0.625443 0.999632 -0.0011748 0.00407939 -0.00144054
94 1 0.0623262 0.687655 0.0623884 -0.00113759 0.00256565 -0.000451656
95 1 0.999577 0.62543 0.124758 -0.00232841 0.00410942 -0.0035969
96 1 0.0623583 0.687597 0.18748 0.000148286 -0.00058276 -9.41645e-05
97 1 0.999677 0.625285 0.250075 -0.00197406 0.00294844 0.000374014
98 1 0.0624679 0.687515 0.312537 0.000243977 0.00062017 0.00137632
99 1 0.999797 0.625238 0.375203 0.00133422 -0.00100803 0.00202859
100 1 0.0625881 0.687488 0.437447 -0.000220701 0.00125688 0.000262907
101 1 0.999997 0.625144 0.500063 0.000309514 0.00147162 0.000847939
102 1 0.0624631 0.687534 0.562536 -0.000645295 -0.000391327 -0.000765449
103 1 0.999885 0.625164 0.625064 -0.000858516 -0.000384156 -0.000184742
104 1 0.06241 0.68755 0.68745 0.00034045 -0.00017008 -0.000119543
105 1 0.999819 0.625216 0.749897 0.000270457 9.58436e-05 0.000140097
106 1 0.0623072 0.687681 0.812245 0.000937741 -6.70239e-05 -0.000248385
107 1 0.999626 0.62541 0.874565 0.00135686 -0.000573308 5.47196e-05
108 1 0.062203 0.687796 0.937146 -0.000157728 -0.000483004 -7.08118e-05
109 1 0.999762 0.750019 0.99982 -0.0011818 0.000430243 -0.000950442
110 1 0.0622631 0.81232 0.0623297 -0.00180626 -0.00186621 -0.00136593
111 1 0.999849 0.750041 0.124968 -0.000371412 -0.000781837 -0.000415361
112 1 0.062453 0.812438 0.187545 -0.00173913 -0.00060446 0.000836593
113 1 0.999931 0.750005 0.250052 -0.000300958 0.00037973 7.05493e-05
114 1 0.0625096 0.812422 0.312568 0.00282041 0.00325421 0.000488097
115 1 0.999985 0.749975 0.375057 0.00108782 0.000527986 0.00152936
116 1 0.0626202 0.812476 0.437388 -0.000816149 -0.00461958 0.00100528
117 1 6.05875e-05 0.749994 0.499946 -0.000534895 -0.00135649 0.000748147
118 1 0.0623718 0.812311 0.562567 0.000101216 0.00177207 -0.00184528
119 1 0.999905 0.74996 0.624987 0.000158642 0.000183189 -0.000570309
120 1 0.0623622 0.812368 0.687453 0.000317111 -0.000184195 1.49356e-05
121 1 0.999819 0.750017 0.749842 0.000804061 -6.41695e-05 -0.000319536
122 1 0.0622903 0.812386 0.812292 0.00108229 -0.000369663 -0.000397351
123 1 0.999719 0.750059 0.874717 0.000677096 -0.000499808 -0.000154219
124 1 0.0622202 0.812323 0.937198 0.000669693 -0.00142773 -0.0011229
125 1 0.999457 0.874541 0.999584 0.0015189 0.00124662 0.00324499
126 1 0.0614645 0.936507 0.0616111 0.00677218 -0.000737186 0.0106051
127 1 0.999644 0.874655 0.12493 -0.000539757 -0.00144571 0.000159333
128 1 0.0618494 0.936807 0.187621 0.0330947 0.0361955 -0.000949319
129 1 0.999726 0.874717 0.250129 -0.00332737 -0.00461263 -0.00293535
130 1 0.0618108 0.936835 0.313021 0.057761 0.0614834 -0.00438268
131 1 0.999773 0.874702 0.375249 0.0056495 0.00773807 0.000581869
132 1 0.0627725 0.937623 0.437204 -5.32156e-05 -0.000808789 0.00156895
133 1 7.4427e-05 0.874955 0.49991 -0.00136785 -0.00200524 0.00109545
134 1 0.0622968 0.937207 0.562687 -0.00133428 -0.00213747 0.00343463
135 1 0.999883 0.874834 0.625017 -0.000344559 -0.000915158 0.00108336
136 1 0.0622688 0.937225 0.687592 0.000734365 0.000986294 -0.00167967
137 1 0.999772 0.874799 0.749873 0.000743871 8.12362e-05 -0.000291652
138 1 0.0622233 0.937173 0.812235 0.000680127 -0.000466282 -0.000316103
139 1 0.999605 0.874718 0.87467 0.00049484 0.00149032 0.00161711
140 1 0.0618763 0.936907 0.936927 -0.000393671 0.00400944 0.00375069
141 1 0.124033 0.998841 0.998994 -0.00444685 0.018197 0.0185504
142 1 0.185768 0.0603731 0.0611465 0.0086611 0.0190737 -0.0383734
143 1 0.122884 0.997726 0.123035 0.0110748 -0.048107 0.0171281
144 1 0.184366 0.0517118 0.184557 -0.0581994 -0.0256965 -0.0840622
145 1 0.123734 0.999385 0.251276 0.0453591 -0.0533651 0.00179785
146 1 0.191906 0.0662315 0.308249 -0.221199 -0.169329 0.127893
147 1 0.126001 0.00091556 0.373858 -0.0289409 -0.0511324 0.0474215
148 1 0.186217 0.0609451 0.43895 0.00196294 -0.0237509 -0.0286998
149 1 0.124495 0.999436 0.500467 -0.00693125 -0.0121886 0.0157386
150 1 0.186885 0.0614446 0.563302 -0.00184102 0.0329251 -0.0203535
151 1 0.124644 0.999535 0.625402 0.000549077 0.00544581 -0.00607938
152 1 0.187381 0.0622694 0.687642 -0.000632883 0.000931621 -0.000987067
153 1 0.124846 0.999764 0.749975 -0.000510286 -0.000405779 -0.000263334
154 1 0.18737 0.0622554 0.812397 0.000637678 -0.00193757 -0.00342235
155 1 0.124667 0.999445 0.874515 0.00148948 0.000111168 0.000763718
156 1 0.18716 0.0614611 0.936806 -0.00691956 -0.00395637 -0.0232898
157 1 0.123387 0.123198 0.998003 0.00875627 0.00475493 0.0190847
158 1 0.183424 0.184938 0.0563178 0.00478896 -0.0653206 0.199704
159 1 0.127847 0.126231 0.127199 -0.147443 -0.0329619 -0.0411992
160 1 0.120727 0.123452 0.249897 0.113705 0.298149 -0.0684303
161 1 0.186096 0.18312 0.311298 0.18566 0.0654691 0.0290326
162 1 0.125244 0.124789 0.376021 -0.0142383 -0.100649 -0.0564819
163 1 0.190681 0.18939 0.434065 -0.160425 0.0411437 0.160833
164 1 0.125606 0.125553 0.499709 -0.010043 -0.00234236 0.0191569
165 1 0.187529 0.187303 0.562508 -0.0113683 -0.00534413 -0.000758368
166 1 0.124981 0.124898 0.625059 -0.0046038 -0.00359528 0.0210284
167 1 0.187491 0.187431 0.687474 -0.00133722 -0.000982712 -0.00063239
168 1 0.124916 0.124911 0.749988 0.00028567 0.000460251 0.000550765
169 1 0.187371 0.187396 0.812482 -2.21681e-05 0.0011011 0.00149824
170 1 0.124642 0.124669 0.874754 -0.0115636 -0.0120759 -0.0244052
171 1 0.186933 0.187001 0.936783 -0.000927911 -0.00768955 0.00209996
172 1 0.12389 0.251308 0.997804 -0.0347133 -0.0206057 0.132371
173 1 0.190879 0.313485 0.0640768 -0.0332517 -0.0335761 0.0477396
174 1 0.119557 0.252304 0.11273 0.0332608 0.129501 -0.0752438
175 1 0.183315 0.316683 0.183318 0.0806694 -0.0806761 0.0806861
176 1 0.117834 0.250449 0.378603 -0.0681547 -0.00606068 -0.156596
177 1 0.184554 0.315633 0.448289 -0.0840618 0.058198 0.025703
178 1 0.123395 0.248582 0.501119 0.0601067 0.0261896 0.00664893
179 1 0.187159 0.312754 0.56392 -0.00939474 0.0031802 -0.183875
180 1 0.124775 0.249826 0.624935 -0.0175858 -0.0151488 0.0567418
181 1 0.187441 0.312503 0.687554 0.00160804 -0.00175334 -0.00861645
182 1 0.124945 0.250005 0.749998 0.00013594 -0.000669489 0.000891739
183 1 0.187485 0.312522 0.812594 0.00125598 0.00189808 -0.00460501
184 1 0.12482 0.250197 0.874949 -0.00931488 0.00739721 -0.0210639
185 1 0.187729 0.31278 0.937854 0.0173951 0.0174301 -0.0576791
186 1 0.125007 0.375495 0.999248 -0.0174849 -0.0424746 0.0361268
187 1 0.185049 0.440517 0.0597915 0.0226286 0.0490499 0.0510629
188 1 0.122509 0.377489 0.122512 0.0567329 -0.0567358 0.0567373
189 1 0.186514 0.435924 0.190881 0.033581 -0.0477411 -0.033247
190 1 0.112728 0.380442 0.247697 -0.0752422 -0.0332647 -0.129497
191 1 0.188621 0.440838 0.310462 -0.0956821 0.0413356 0.139774
192 1 0.127196 0.372151 0.373771 -0.0411952 0.147436 0.0329543
193 1 0.186589 0.43735 0.43756 -0.0158813 0.0864092 0.101043
194 1 0.123032 0.377114 0.502275 0.0171284 -0.011075 0.0481087
195 1 0.187618 0.438149 0.563194 -0.000949523 -0.0330957 -0.0361969
196 1 0.124688 0.375324 0.625218 -0.0137533 0.0158532 0.033384
197 1 0.187542 0.437545 0.687563 0.000836633 0.00173918 0.000604533
198 1 0.12496 0.375073 0.75001 0.000228237 0.000151925 -0.000227755
199 1 0.187478 0.43764 0.812404 -9.41356e-05 -0.000148344 0.000582901
200 1 0.124991 0.375172 0.874917 -0.00131907 0.000746926 -0.0127592
201 1 0.187255 0.43832 0.936954 -0.0146282 0.00932631 -0.019612
202 1 0.123856 0.50145 0.998611 0.00559879 -0.00156788 -0.00592337
203 1 0.186797 0.563431 0.0615118 -0.0111523 -0.00277204 0.0220844
204 1 0.124504 0.500753 0.12501 0.042476 -0.0361275 -0.0174828
205 1 0.187219 0.562147 0.187732 -0.0174297 0.0576796 0.0173951
206 1 0.12313 0.500635 0.249849 0.0418832 0.00992773 -0.0186881
207 1 0.187644 0.562385 0.312085 -0.00964168 0.0115423 -8.43721e-05
208 1 0.125142 0.499811 0.374926 -0.00916076 0.0391559 0.0242895
209 1 0.187276 0.562581 0.437696 -0.0029103 0.0167194 0.00779321
210 1 0.124814 0.500248 0.500386 -0.00800269 -0.00548967 -0.00801666
211 1 0.187532 0.562611 0.562624 0.00117565 0.000516365 -0.000130838
212 1 0.124928 0.500355 0.625346 0.000159323 0.000539668 0.00144563
213 1 0.187525 0.562653 0.6876 -4.60025e-05 0.000706768 -9.44868e-05
214 1 0.124965 0.500149 0.74996 -0.000415375 0.000371427 0.000781903
215 1 0.187473 0.562709 0.812308 -0.000262786 0.00100559 -0.00136751
216 1 0.124756 0.500421 0.874571 -0.00359696 0.00232843 -0.00410938
217 1 0.18726 0.563234 0.936779 0.000774855 0.000310455 -0.000709586
218 1 0.124576 0.625574 0.99946 -0.00201336 0.00205225 -0.00061701
219 1 0.187353 0.687631 0.0623485 -0.00102181 0.000541987 0.00135235
220 1 0.124826 0.625085 0.124994 -0.000746785 0.0127582 -0.00131888
221 1 0.187476 0.687407 0.187488 -0.00189808 0.00460516 0.001256
222 1 0.124767 0.624983 0.249976 0.00337423 0.00295487 -0.00203137
223 1 0.187582 0.687395 0.312375 4.91978e-05 0.00087927 -0.00037948
224 1 0.125077 0.624872 0.374885 -0.000546634 0.00823281 0.00143857
225 1 0.187514 0.687445 0.437458 -0.000718091 0.000201524 -0.000703497
226 1 0.124952 0.625094 0.500106 0.000930956 -0.0024227 -0.00227918
227 1 0.187496 0.687478 0.562535 0.000479269 -0.000369454 -0.000211988
228 1 0.124982 0.625082 0.625052 -0.000208495 0.000219063 0.000129472
229 1 0.187478 0.687501 0.687478 0.00011268 -0.000105373 -0.000318968
230 1 0.124937 0.625154 0.749915 -3.37593e-05 0.00050586 -0.000344355
231 1 0.18744 0.68764 0.812283 0.000529204 -4.28848e-05 -0.000371865
232 1 0.124783 0.6254 0.874571 0.00145012 -0.000251576 -0.000436385
233 1 0.18738 0.687745 0.937188 0.000701991 0.00118421 -0.00119522
234 1 0.124851 0.750046 0.999817 -0.00082477 -0.00132875 -0.000563212
235 1 0.187458 0.812409 0.0623859 0.000843498 -0.000707143 -0.00156164
236 1 0.124925 0.749991 0.124962 -0.000151924 0.000227752 0.000228256
237 1 0.187495 0.812447 0.187443 0.0017533 0.00861654 0.00160803
238 1 0.125026 0.750004 0.250002 0.00038959 -0.00143564 0.000732978
239 1 0.187652 0.812571 0.312418 -0.00134912 0.000585588 0.000493422
240 1 0.125121 0.749967 0.374904 -0.000146865 -0.000352856 -9.77519e-05
241 1 0.187483 0.812383 0.437531 -0.000855495 0.000831138 -0.00232649
242 1 0.124992 0.749915 0.499998 -0.00116051 8.23581e-05 -0.00133057
243 1 0.187417 0.812269 0.56263 0.00108566 -0.00132327 0.000732356
244 1 0.124934 0.74991 0.625015 0.000584989 -0.000623652 0.000325597
245 1 0.187417 0.812325 0.687518 0.000354922 -0.000253556 -0.000338112
246 1 0.124893 0.749979 0.749875 0.000593304 -4.37966e-05 -0.000336512
247 1 0.187418 0.812373 0.812334 0.000618131 -0.000447944 -0.000394852
248 1 0.124843 0.750039 0.87474 0.000616029 -0.000176317 -0.000764213
249 1 0.187408 0.812321 0.937229 0.000515587 -0.000489218 -0.00109024
250 1 0.124712 0.87455 0.999549 -0.000183238 -0.00370502 -0.00211761
251 1 0.187433 0.936623 0.0616698 -0.00540551 0.0268028 0.0233337
252 1 0.124674 0.874783 0.124691 -0.0158532 -0.0333844 -0.0137532
253 1 0.187244 0.936081 0.187162 -0.00318013 0.183873 -0.00939455
254 1 0.124928 0.875154 0.250144 -0.0168227 -0.0563141 0.0164607
255 1 0.18787 0.937805 0.312264 -0.0161046 -0.0094654 -0.000747569
256 1 0.125224 0.875169 0.37485 -0.00571339 -0.0259121 0.00532081
257 1 0.18699 0.936809 0.438335 -0.00949931 0.031237 -0.0498153
258 1 0.124731 0.874612 0.500272 -0.00102343 0.00765472 -0.00763685
259 1 0.187341 0.937086 0.562834 -0.00311402 -0.00515518 0.00478825
260 1 0.124851 0.874745 0.62512 -0.000177323 -0.000785671 0.00037616
261 1 0.187372 0.937188 0.687657 0.00116874 -0.000962443 0.000693186
262 1 0.124851 0.874775 0.749926 0.000838568 -0.000812978 0.000159465
263 1 0.187417 0.937195 0.812307 9.4575e-05 -0.000904614 -5.513e-05
264 1 0.12479 0.874713 0.874702 0.00125658 -0.000766272 -0.000824611
265 1 0.187352 0.936973 0.937026 0.0019775 -0.0014764 -0.0023132
266 1 0.250078 0.999151 0.999323 0.000198366 0.0154799 0.00475697
267 1 0.313684 0.0614218 0.0613344 -0.00653261 -0.0308 -0.00469878
268 1 0.251416 0.998882 0.123397 -0.0261887 -0.00664898 0.0601057
269 1 0.310608 0.0659357 0.190684 -0.0411393 -0.160836 -0.160426
270 1 0.250629 0.999908 0.249647 -0.0227329 -0.170582 -0.0272373
271 1 0.316156 0.0516801 0.315543 0.0311243 0.0207535 0.0480515
272 1 0.249115 0.998456 0.376531 0.0192866 0.0267682 -0.031489
273 1 0.315111 0.0610294 0.438805 -0.00280133 -0.0778505 0.0801151
274 1 0.250218 0.99919 0.500705 -0.00348098 0.0234769 -0.0174576
275 1 0.312718 0.0613362 0.563363 0.00771498 0.019549 0.00743678
276 1 0.249924 0.999454 0.625461 0.00188374 -0.000958101 0.00136749
277 1 0.312555 0.0622592 0.68765 -0.000786807 -0.00243386 0.00259639
278 1 0.249975 0.999774 0.750017 0.00035122 -0.000509989 0.00014537
279 1 0.312546 0.0622907 0.812411 0.000742611 -0.000161004 -0.00105569
280 1 0.250045 0.999545 0.87464 -0.000939726 0.0008606 0.00149081
281 1 0.312871 0.061783 0.937002 0.0030233 -0.00489861 -0.0235054
282 1 0.249964 0.123253 0.998325 0.00491137 0.0463993 0.0707375
283 1 0.313126 0.18694 0.0612848 -0.0901112 -0.0587789 -0.0727624
284 1 0.24955 0.121398 0.117837 0.00606646 0.156587 -0.0681598
285 1 0.316879 0.188703 0.186099 -0.0654777 -0.0290272 0.185665
286 1 0.250299 0.117248 0.381348 -0.034513 0.0650553 -0.0211654
287 1 0.315541 0.183842 0.448321 0.0480496 -0.0311237 -0.020752
288 1 0.248983 0.122855 0.5016 0.020836 0.0499321 -0.0153051
289 1 0.31284 0.186922 0.564045 0.00107251 -0.00829105 -0.158004
290 1 0.249909 0.124555 0.625043 -0.0158454 -0.0168564 0.0491526
291 1 0.31253 0.18734 0.687606 -0.00142732 0.00166142 -0.0095696
292 1 0.24995 0.124856 0.750006 -0.000555507 -0.000339503 0.00149529
293 1 0.312417 0.187409 0.812564 0.00113812 -8.67315e-06 -0.00150439
294 1 0.249918 0.124625 0.874855 0.00673443 -0.0047045 -0.0109765
295 1 0.312443 0.187217 0.937428 0.00583052 0.000751408 -0.0223313
296 1 0.249155 0.248752 0.000147536 -0.0141299 0.0214847 -0.0905704
297 1 0.310459 0.311377 0.0591633 0.139772 0.0956766 -0.0413351
298 1 0.250202 0.249796 0.250205 -0.0705452 0.0705509 -0.0705545
299 1 0.311296 0.313902 0.316881 0.0290272 -0.185661 -0.065476
300 1 0.308246 0.308092 0.43377 0.127892 0.2212 0.169326
301 1 0.249644 0.249369 0.500093 -0.0272395 0.0227342 0.170576
302 1 0.312261 0.312129 0.562196 -0.000747681 0.0161045 0.0094659
303 1 0.249958 0.249837 0.624775 -0.000813967 0.0010686 0.0808451
304 1 0.312415 0.312346 0.68743 0.000493429 0.00134911 -0.000585505
305 1 0.249932 0.249922 0.750019 -5.64184e-05 0.000231325 0.000415989
306 1 0.312373 0.312416 0.812606 -0.000379496 -4.92359e-05 -0.000879252
307 1 0.249812 0.249864 0.875183 0.000822993 0.00225217 -0.020989
308 1 0.312082 0.312355 0.937616 -8.45015e-05 0.00964189 -0.0115424
309 1 0.249846 0.376868 0.999366 -0.0186878 -0.0418808 -0.00993168
310 1 0.314687 0.439655 0.0604198 -0.0487593 -0.00622529 0.0642798
311 1 0.247694 0.387271 0.11956 -0.129503 0.07524 0.0332596
312 1 0.31506 0.443683 0.183427 0.0653252 -0.199701 0.00478887
313 1 0.313058 0.438716 0.313129 0.0587703 0.0727548 -0.0901129
314 1 0.249894 0.379271 0.37655 -0.0684303 -0.113705 -0.298151
315 1 0.313399 0.437987 0.437795 0.0024609 -0.0337276 -0.00158132
316 1 0.251273 0.376264 0.500616 0.00179691 -0.0453592 0.0533657
317 1 0.313018 0.438188 0.563166 -0.0043826 -0.0577606 -0.0614828
318 1 0.250141 0.37507 0.624847 0.0164608 0.0168225 0.056314
319 1 0.312565 0.437489 0.687579 0.000488161 -0.00282045 -0.00325416
320 1 0.249999 0.374972 0.749998 0.000732995 -0.000389614 0.00143568
321 1 0.312534 0.43753 0.812486 0.00137637 -0.000244021 -0.000620095
322 1 0.249974 0.375231 0.875018 -0.00203139 -0.00337426 -0.00295523
323 1 0.312802 0.437942 0.937288 0.0116401 0.0194789 -0.031159
324 1 0.250029 0.501473 0.998834 0.00254748 -0.0578415 0.0383698
325 1 0.312594 0.563094 0.0617546 0.0174194 0.0342259 0.000447754
326 1 0.248691 0.502197 0.123893 0.0206027 -0.132376 -0.0347122
327 1 0.312997 0.563218 0.186936 0.00768985 -0.00209637 -0.000927492
328 1 0.251247 0.499854 0.249158 -0.0214812 0.0905752 -0.0141304
329 1 0.312782 0.562573 0.312446 -0.000751692 0.022331 0.00583061
330 1 0.250139 0.50111 0.375999 0.0104747 -0.0678813 -0.0754627
331 1 0.312807 0.562829 0.437863 -0.00168918 0.00619576 0.00301076
332 1 0.249966 0.499961 0.500037 0.00197874 0.0169089 0.00136892
333 1 0.312558 0.562568 0.562572 0.00137497 0.00179769 0.000511967
334 1 0.250126 0.500273 0.625284 -0.00293542 0.00332736 0.00461261
335 1 0.312596 0.562602 0.687604 -0.00130724 0.00121153 0.000707531
336 1 0.25005 0.500067 0.749996 7.06078e-05 0.000300974 -0.000379683
337 1 0.312592 0.562654 0.812347 -4.81565e-05 0.000769038 -0.000647203
338 1 0.250072 0.500321 0.874717 0.000374172 0.0019741 -0.00294845
339 1 0.312695 0.563162 0.936841 -0.00164733 0.00368852 -0.00173949
340 1 0.249933 0.625483 0.999555 0.00318643 0.000904699 -0.00266506
341 1 0.312503 0.687568 0.0623733 0.000998348 0.00494952 -0.0011083
342 1 0.249801 0.625052 0.124823 -0.00739697 0.0210617 -0.00931425
343 1 0.312602 0.68752 0.187374 -0.00110111 -0.00149795 -2.20871e-05
344 1 0.250135 0.624818 0.249815 -0.00225205 0.0209884 0.000822822
345 1 0.31259 0.687437 0.312419 8.60974e-06 0.00150444 0.00113809
346 1 0.250037 0.624966 0.374986 0.00132436 -0.000289984 -0.00112002
347 1 0.312543 0.687492 0.437529 0.000263196 -0.00033286 7.35567e-05
348 1 0.249983 0.625019 0.500053 0.000651998 0.00186255 0.000873779
349 1 0.312508 0.687454 0.562569 0.000249172 0.000646457 0.000177708
350 1 0.250037 0.625035 0.625058 0.000289042 -0.000763835 -0.000831573
351 1 0.312537 0.687469 0.687513 0.000425382 -0.000228201 -0.000276135
352 1 0.25003 0.625098 0.749945 0.000187016 0.000439723 -0.000412588
353 1 0.312559 0.687607 0.812317 0.000244257 -8.77117e-05 -0.000449168
354 1 0.249997 0.625343 0.87463 0.000548347 -7.1147e-05 -0.000412663
355 1 0.31255 0.687717 0.937212 0.00110671 0.000586866 -0.000618739
356 1 0.249976 0.75001 0.999845 0.000759566 -0.000445357 -0.000236632
357 1 0.312589 0.812367 0.0623721 0.00100328 0.00244263 0.00152581
358 1 0.249993 0.750003 0.124947 0.000669451 -0.000891755 0.000135974
359 1 0.312567 0.812527 0.187494 0.000982635 0.000632464 -0.00133719
360 1 0.250077 0.749982 0.249935 -0.000231381 -0.000415948 -5.64068e-05
361 1 0.312658 0.812395 0.312532 -0.00166151 0.00956982 -0.00142726
362 1 0.250053 0.749964 0.374961 -0.000529847 -0.00167067 -0.000345472
363 1 0.312569 0.81236 0.437609 -0.000784653 -0.00297409 0.00197968
364 1 0.249998 0.749894 0.500034 0.00017024 -6.92348e-05 -0.000281452
365 1 0.312528 0.812208 0.562729 8.3328e-05 -0.00044635 0.000438522
366 1 0.249981 0.74987 0.625065 0.000242501 -0.000325261 -1.65383e-05
367 1 0.312523 0.812295 0.687577 0.000401691 -0.000534897 -0.000304355
368 1 0.249988 0.749951 0.749916 0.000514184 -0.000315791 -0.000358659
369 1 0.312552 0.812364 0.812369 0.000419925 -0.000424697 -0.000111627
370 1 0.249986 0.750018 0.874775 0.000579127 -0.000434249 -0.000652316
371 1 0.312596 0.812317 0.937246 -0.000367236 -0.000938364 -0.000737313
372 1 0.250076 0.874555 0.999559 -0.00177541 -0.00354742 -0.00287667
373 1 0.313129 0.936625 0.0615943 0.00218814 0.0391966 0.0465118
374 1 0.250172 0.875066 0.124778 0.0151487 -0.0567417 -0.0175858
375 1 0.312695 0.937493 0.187531 0.00534425 0.000758382 -0.0113681
376 1 0.250161 0.875226 0.24996 -0.00106873 -0.0808447 -0.000813953
377 1 0.313076 0.935957 0.312843 0.00829105 0.158003 0.00107267
378 1 0.250006 0.875043 0.375219 -0.016165 -0.0502231 0.0170559
379 1 0.312717 0.936749 0.438441 0.0118758 -0.0163277 -0.0144766
380 1 0.249954 0.874561 0.500378 0.00287406 -0.00285586 0.00212616
381 1 0.312617 0.93684 0.563103 -0.00246205 -0.00381452 0.00328094
382 1 0.24993 0.874664 0.625233 0.000123159 -0.000346182 -0.000445491
383 1 0.312549 0.937145 0.687732 -4.08761e-05 -0.000997622 2.57769e-05
384 1 0.249975 0.87476 0.749981 0.000307205 -0.000538831 -0.000107462
385 1 0.312587 0.937217 0.812351 -0.000239931 -0.000141007 0.000177981
386 1 0.250009 0.874726 0.874742 0.000594907 -0.000475202 5.88383e-05
387 1 0.312699 0.93705 0.937086 0.00158797 -0.00160344 -0.00167447
388 1 0.375521 0.999343 0.999485 -0.00134904 0.00243326 -0.0111745
389 1 0.438005 0.0618158 0.0619699 -0.0232554 0.055286 0.0832891
390 1 0.374445 0.000292061 0.125608 0.00234276 -0.0191568 -0.0100435
391 1 0.439053 0.0610515 0.18622 0.02375 0.0286997 0.00196267
392 1 0.377143 0.998401 0.248985 -0.0499315 0.0153046 0.0208359
393 1 0.438969 0.061196 0.315114 0.0778504 -0.0801148 -0.00280071
394 1 0.377265 0.997363 0.377116 -0.0143012 0.0432427 -0.0126753
395 1 0.437183 0.0628148 0.437186 0.0653785 -0.0653787 0.0653793
396 1 0.376035 0.998532 0.501432 0.00931233 0.0591353 -0.0618491
397 1 0.4386 0.0613661 0.563626 -0.00631082 0.00639235 0.0155017
398 1 0.37532 0.999368 0.625603 -0.000491639 -0.000123072 -0.000838158
399 1 0.437765 0.062221 0.687803 0.0013547 -0.00148538 0.00391276
400 1 0.375114 0.999772 0.750061 0.000573382 -0.000474037 0.000738405
401 1 0.437631 0.0623633 0.81246 -8.2018e-05 -0.00051555 -0.000833947
402 1 0.375256 0.999642 0.874695 -0.00200799 0.00158149 0.0019359
403 1 0.437811 0.0621842 0.937192 -0.0003616 0.000303902 -0.00361948
404 1 0.375406 0.124512 0.99945 -0.000387035 -0.00656273 -0.0182679
405 1 0.437792 0.186599 0.0620142 -0.0015807 -0.00246098 0.0337276
406 1 0.37521 0.12398 0.125247 0.100649 0.0564815 -0.0142396
407 1 0.433767 0.191752 0.191909 0.169327 -0.127893 -0.221198
408 1 0.382751 0.118653 0.250301 -0.0650548 0.0211663 -0.0345122
409 1 0.448318 0.184458 0.316159 -0.0207539 -0.0480514 0.0311257
410 1 0.370823 0.129176 0.370825 0.244281 -0.244281 0.244284
411 1 0.438802 0.184887 0.438972 0.0801148 0.00280116 0.0778509
412 1 0.377113 0.122733 0.502638 -0.012676 0.0143014 -0.0432435
413 1 0.438438 0.187281 0.563252 -0.0144769 -0.0118758 0.0163275
414 1 0.3754 0.124527 0.625331 0.0159585 -0.0157125 0.0298525
415 1 0.437606 0.187429 0.687642 0.00197968 0.000784583 0.00297407
416 1 0.375056 0.124882 0.75006 6.08025e-05 -0.000121033 0.00135964
417 1 0.437526 0.187456 0.812509 7.35557e-05 -0.000263268 0.00033283
418 1 0.37506 0.124833 0.874873 0.000956972 -0.00104824 -0.00172444
419 1 0.437861 0.187191 0.937172 0.00301067 0.00168918 -0.00619559
420 1 0.375997 0.24986 0.998891 -0.0754633 -0.0104748 0.0678822
421 1 0.437557 0.313409 0.0626516 0.101043 0.0158815 -0.0864103
422 1 0.376547 0.250105 0.12073 -0.298149 0.0684314 0.113709
423 1 0.448286 0.315444 0.184368 0.0256941 0.0840615 -0.058201
424 1 0.434063 0.309318 0.310611 0.16084 0.160425 -0.0411371
425 1 0.381346 0.2497 0.382753 -0.0211655 0.0345126 -0.0650545
426 1 0.438947 0.313781 0.439056 -0.0286982 -0.00196272 0.0237495
427 1 0.376528 0.250883 0.501545 -0.0314903 -0.0192865 -0.0267682
428 1 0.438332 0.313008 0.563192 -0.0498144 0.00949915 -0.0312363
429 1 0.375216 0.249993 0.624958 0.0170555 0.016165 0.0502228
430 1 0.437528 0.312515 0.687618 -0.00232651 0.00085549 -0.000831143
431 1 0.374958 0.249946 0.750037 -0.000345493 0.000529781 0.00167063
432 1 0.437455 0.312484 0.812556 -0.000703498 0.000718061 -0.000201533
433 1 0.374984 0.249962 0.875035 -0.00112004 -0.00132449 0.000289931
434 1 0.437694 0.312723 0.93742 0.00779361 0.00291033 -0.0167202
435 1 0.374923 0.374857 0.000189915 0.0242898 0.00916093 -0.0391549
436 1 0.437317 0.437426 0.0623817 -0.0213906 0.00502228 0.0051186
437 1 0.373768 0.372802 0.12785 0.0329586 0.0412 -0.14744
438 1 0.439625 0.438855 0.185771 -0.019074 0.0383733 0.00865866
439 1 0.3786 0.382164 0.249553 -0.156587 0.068158 0.00606825
440 1 0.438577 0.438667 0.313687 0.0308004 0.00470004 -0.00653153
441 1 0.376018 0.374754 0.375212 -0.0564817 0.0142382 0.100649
442 1 0.438183 0.438031 0.438008 -0.0552853 -0.0832888 -0.0232557
443 1 0.373855 0.373997 0.499086 0.0474199 0.02894 0.0511319
444 1 0.437201 0.437226 0.562378 0.00156898 5.32686e-05 0.000808925
445 1 0.374847 0.374774 0.624832 0.00532073 0.00571336 0.0259119
446 1 0.437385 0.437378 0.687525 0.00100532 0.000816123 0.00461954