ITEM: TIMESTEP
0
ITEM: NUMBER OF ATOMS
1026
ITEM: BOX BOUNDS pp pp pp
0.0000000000000000e+00 2.2857118000000000e+01
0.0000000000000000e+00 2.2857118000000000e+01
0.0000000000000000e+00 2.2857118000000000e+01
ITEM: ATOMS id type xs ys zs fx fy fz
1 1 0.245733 0.24488 0.121075 0.134932 0.478298 -0.0234095
2 1 0.296526 0.316632 0.172603 -0.0945349 -0.0157394 0.377234
3 1 0.223397 0.129757 0.219159 0.195866 -0.333796 0.272183
4 1 0.172601 0.203472 0.183369 0.377225 0.0945373 0.0157389
5 1 0.370241 0.280842 0.2234 0.333791 -0.272183 0.195869
6 1 0.255118 0.378926 0.245736 -0.478297 0.0233997 0.13493
7 1 0.288792 0.140641 0.288259 -0.123405 0.0414245 -0.073018
8 1 0.359357 0.211742 0.288795 -0.0414236 0.0730158 -0.123411
9 1 0.121072 0.254265 0.255121 -0.0233979 -0.134932 -0.478292
10 1 0.183366 0.327397 0.29653 0.0157536 -0.377225 -0.0945495
11 1 0.288257 0.211206 0.35936 -0.073019 0.123409 -0.0414285
12 1 0.219157 0.276601 0.370244 0.272183 -0.195862 0.333795
13 1 0.999477 0.999772 0.999607 -0.00471386 -0.00240258 -0.0035949
14 1 0.0618388 0.06242 0.0619932 0.0167857 0.0232291 0.0158773
15 1 0.999773 0.999634 0.124809 -0.0180779 -0.0153179 -0.0174586
16 1 0.0623627 0.0619414 0.186984 -0.066892 -0.0797015 -0.0246754
17 1 6.41809e-05 1.39535e-05 0.250133 -0.0281694 -0.01202 0.00895416
18 1 0.0625529 0.0626398 0.313062 -0.0110909 0.00517692 0.0155216
19 1 4.7237e-06 0.999979 0.37517 -0.0138928 0.00629535 -0.000290239
20 1 0.0624427 0.06237 0.437755 0.0621249 0.0239479 -0.0426914
21 1 0.999911 0.99981 0.500164 0.00989745 0.00505909 -0.00654767
22 1 0.0625213 0.0625699 0.562551 -0.00491349 -0.00184232 0.00434337
23 1 0.999925 0.999916 0.625045 -0.000798962 0.000724103 0.00118252
24 1 0.0624114 0.0624149 0.687557 -8.03935e-05 -0.000311856 0.00277
25 1 0.999841 0.999851 0.7499 -0.000321902 -0.000564598 0.00170186
26 1 0.0622957 0.062305 0.812296 2.36216e-05 -0.000877881 0.00062562
27 1 0.999596 0.999654 0.874575 0.00374142 0.00287747 0.00192318
28 1 0.0618549 0.0618646 0.936794 0.00682596 0.00705547 -0.00138375
29 1 0.998956 0.124334 0.998928 0.0199431 0.00928965 0.0216795
30 1 0.0606622 0.186281 0.060743 0.0814981 0.0365031 0.0398958
31 1 0.000151995 0.125048 0.125058 -0.0662759 -0.0259827 -0.0203419
32 1 0.0608029 0.189341 0.187114 0.177698 0.0110456 -0.0712088
33 1 0.999663 0.124915 0.249813 -0.000741684 -0.000322479 0.0012089
34 1 0.0612949 0.186994 0.313086 -0.0234297 0.103583 0.0208986
35 1 0.999705 0.124801 0.375462 -6.07589e-05 0.00562323 -0.00472065
36 1 0.0623561 0.187219 0.437628 -0.0126068 0.00141045 -0.00348263
37 1 0.999842 0.124826 0.500222 -0.00518543 0.0045635 -0.0107813
38 1 0.0615955 0.186896 0.563374 0.0429892 0.00402848 -0.0433134
39 1 0.999611 0.124661 0.62539 0.00490964 0.00130042 -0.00646502
40 1 0.0623581 0.187407 0.687629 0.00156467 -0.00194096 -0.0028745
41 1 0.999828 0.124899 0.749987 0.00033414 -0.00209051 -0.000307659
42 1 0.0623338 0.187467 0.812391 -0.00169811 -0.00198771 -0.00452832
43 1 0.999612 0.124798 0.87459 0.000973497 -0.0014135 -0.000202778
44 1 0.0618539 0.187341 0.936977 -0.00826563 -0.0141021 -0.0352803
45 1 0.998732 0.249952 0.998608 0.0282645 0.00144263 0.0402645
46 1 0.0594436 0.314909 0.0592835 0.0174256 -0.0242373 -0.00477465
47 1 0.998733 0.250358 0.123418 0.0375665 0.00785947 0.0135742
48 1 0.0606495 0.312928 0.185608 -0.0550411 0.109619 0.0611011
49 1 0.999523 0.250893 0.250547 -0.00713999 0.00569155 -0.0177377
50 1 0.0602124 0.316024 0.313293 -0.0535002 -0.0461199 -0.0338005
51 1 0.999254 0.250662 0.375771 0.0500849 -0.00389318 -0.0303408
52 1 0.0616221 0.313859 0.439224 -0.0176708 0.0103049 -0.0135796
53 1 0.999681 0.249952 0.500448 -0.0135743 -0.00610263 0.00151064
54 1 0.061422 0.312551 0.563711 0.0457703 0.00450371 -0.0557512
55 1 0.999503 0.249871 0.625471 -0.00439262 0.000289854 0.00468881
56 1 0.0623496 0.31254 0.687618 -0.00460026 -0.00190345 0.00218246
57 1 0.99982 0.250006 0.749986 -0.0011934 -0.00134979 0.000340265
58 1 0.0623002 0.312633 0.812334 -0.00163592 -0.000938564 -0.0023791
59 1 0.999569 0.250024 0.874556 -0.00212581 -0.0025398 -0.00109645
60 1 0.0616076 0.313016 0.936677 -0.0126711 0.00841929 -0.0251916
61 1 0.998332 0.376309 0.998296 0.0111974 -0.0134404 0.0143482
62 1 0.060824 0.439174 0.0608267 -0.0105997 0.0105987 -0.0105992
63 1 0.998438 0.375932 0.123847 0.00819424 0.0226339 -0.000432627
64 1 0.0592808 0.440555 0.185092 -0.00477272 -0.0174258 0.0242384
65 1 0.998336 0.376298 0.249271 0.0709946 0.0302955 0.00592852
66 1 0.0607402 0.439336 0.31372 0.0398956 -0.0814975 -0.0365002
67 1 0.998804 0.376138 0.37609 0.0376159 -0.0196923 -0.0149642
68 1 0.0619905 0.43816 0.437581 0.0158789 -0.0167869 -0.0232291
69 1 0.999302 0.375791 0.500928 -0.0092821 0.00872018 -0.00143256
70 1 0.061252 0.438886 0.56389 0.0111212 -0.00672692 -0.00676705
71 1 0.999436 0.375306 0.625554 -0.00346072 -0.000594276 0.0028547
72 1 0.0622753 0.437788 0.687699 -0.00608484 0.00555685 0.00728225
73 1 0.999778 0.375149 0.749954 -0.00232007 0.000615351 0.000724711
74 1 0.0622992 0.437738 0.812275 -0.00355648 0.00368649 -0.00478354
75 1 0.999441 0.375365 0.874422 -0.00401387 0.00133167 -0.00428315
76 1 0.0617627 0.438269 0.936528 -0.00700273 0.00674705 -0.00981499
77 1 0.998941 0.501058 0.998943 -0.000364003 0.000364142 -0.000364343
78 1 0.0617296 0.563473 0.0617655 -0.00674643 0.00981469 -0.00700247
79 1 0.998293 0.501666 0.123692 0.0143488 -0.0111983 0.0134409
80 1 0.0615781 0.563232 0.187168 -0.0143624 0.0262973 -0.0144556
81 1 0.998606 0.501266 0.250049 0.0402629 -0.0282632 -0.00144286
82 1 0.0620187 0.562861 0.312811 -0.00752586 0.0198767 0.00469219
83 1 0.998925 0.501043 0.375667 0.0216787 -0.0199423 -0.00928953
84 1 0.0625056 0.562637 0.437595 -0.00248904 0.0063985 -0.00172851
85 1 0.999605 0.500522 0.500229 -0.00359442 0.0047135 0.002402
86 1 0.0623631 0.562742 0.562694 -0.00575592 0.00594328 0.00290839
87 1 0.999413 0.500688 0.625585 0.00232653 -0.00136323 -0.00166134
88 1 0.0623572 0.562816 0.687639 0.000667399 0.00226584 0.000902328
89 1 0.99976 0.500284 0.749959 -0.00319705 0.00291792 0.000563714
90 1 0.062277 0.562851 0.812194 -0.00199518 0.00255199 -0.00237431
91 1 0.999499 0.500509 0.874416 -0.00291892 0.00252287 -0.00592254
92 1 0.0617725 0.563418 0.936577 0.00410839 -0.00176493 0.00153534
93 1 0.999489 0.625585 0.999502 -0.00252264 0.00592248 -0.00291861
94 1 0.0622604 0.687726 0.062302 -0.00368621 0.00478339 -0.00355635
95 1 0.999473 0.625532 0.12472 -0.00554869 0.00628453 -0.00424076
96 1 0.0623129 0.687647 0.187454 -0.00135154 0.00206764 0.00030823
97 1 0.999633 0.625346 0.250079 -0.00299632 0.00442828 -7.02503e-05
98 1 0.0624516 0.687542 0.312551 0.000263415 0.00228304 0.00098963
99 1 0.999775 0.625271 0.375212 0.00108827 -0.000619182 0.00118434
100 1 0.0625834 0.687504 0.437469 -0.000590963 0.00100336 0.000829081
101 1 0.999969 0.625158 0.500065 -0.00133194 0.00139359 0.000952865
102 1 0.0624762 0.687519 0.562518 -0.000753424 -0.000475642 -0.000499922
103 1 0.999872 0.625181 0.625055 -0.00170171 0.0016534 0.000633497
104 1 0.0624109 0.687566 0.687437 0.000386581 0.000561317 -0.000118923
105 1 0.999791 0.625268 0.74988 -0.000248594 0.00157257 0.000129664
106 1 0.0623084 0.687718 0.812221 0.00106162 0.000302447 -0.000835746
107 1 0.999567 0.625494 0.87449 0.000201594 2.22232e-05 -0.000429499
108 1 0.0622115 0.687814 0.937113 -0.000748891 0.00121071 -0.00132407
109 1 0.999714 0.750042 0.999763 -0.00291786 -0.000563805 -0.00319686
110 1 0.0622106 0.812302 0.062278 -0.00555662 -0.00728185 -0.00608459
111 1 0.999805 0.75005 0.124947 -0.00292819 -0.000539964 -0.000860787
112 1 0.0624002 0.812402 0.187552 -0.00441537 -0.0024179 0.00146022
113 1 0.999899 0.750005 0.25007 -0.00166242 2.48117e-05 0.000515728
114 1 0.0624906 0.812401 0.312587 0.00183823 0.00275525 0.00214619
115 1 0.99997 0.749975 0.375075 0.000603588 0.000413438 0.00231638
116 1 0.062605 0.81246 0.437404 -0.000918899 -0.00488012 0.00159729
117 1 4.99653e-05 0.749994 0.499958 -0.000932226 -0.00143435 0.00105639
118 1 0.0623623 0.812302 0.562573 0.000131779 0.00161998 -0.00146532
119 1 0.999904 0.749963 0.62498 0.000193059 0.000383385 -0.000580851
120 1 0.062364 0.812379 0.687462 -9.24925e-05 -5.46335e-05 -8.09778e-05
121 1 0.999821 0.750044 0.749833 0.000754679 0.000589623 -0.000751156
122 1 0.0623095 0.812416 0.812302 0.00109313 0.000417935 -2.43935e-05
123 1 0.999712 0.750073 0.874684 0.000659619 -0.000276013 -0.000996813
124 1 0.0622122 0.812299 0.937142 0.00132111 -0.00116423 -0.00242778
125 1 0.99931 0.874416 0.999416 0.00136313 0.00166123 0.00232647
126 1 0.0611124 0.936111 0.0612548 0.00672626 0.00676642 0.0111207
127 1 0.999495 0.874529 0.124892 -0.00134241 -0.00135458 -3.42242e-05
128 1 0.0615155 0.936419 0.187674 0.0523736 0.0599621 -0.00437955
129 1 0.999618 0.874625 0.250216 -0.00524808 -0.00568785 -0.00136053
130 1 0.0617282 0.936757 0.313093 0.0500471 0.0504635 -0.00322369
131 1 0.999744 0.87469 0.375278 0.00393532 0.00560661 0.000649103
132 1 0.0626955 0.937583 0.437226 -0.00374499 -0.00505701 0.00438331
133 1 5.07461e-05 0.874953 0.499916 -0.00168537 -0.00153299 0.00060056
134 1 0.0622328 0.937188 0.562717 -0.00276199 -0.00155904 0.00247991
135 1 0.999865 0.874838 0.625026 -0.000799516 -0.000498734 0.000606897
136 1 0.0622581 0.937237 0.687604 0.00080737 0.00174918 -0.00140287
137 1 0.999787 0.874829 0.749891 0.000790197 0.00083299 -0.000280771
138 1 0.0622611 0.937232 0.812286 0.000813397 0.000741323 0.00125365
139 1 0.999649 0.874767 0.87469 -0.000160235 0.00174301 -0.00011648
140 1 0.0619781 0.937011 0.937017 -0.00109771 0.00177517 -0.00238793
141 1 0.124208 0.999073 0.999305 -0.00871954 0.00143339 -0.00928148
142 1 0.18614 0.0607769 0.0616249 -0.0103044 0.0135796 -0.017672
143 1 0.121983 0.996781 0.122187 -0.0050747 -0.0680686 0.00431134
144 1 0.182189 0.0502093 0.182544 -0.0202608 -0.153113 -0.0576625
145 1 0.123453 0.998973 0.25149 0.0705996 -0.0157604 -0.0274069
146 1 0.191357 0.0657945 0.309607 -0.217926 -0.142127 0.025399
147 1 0.12577 0.000622487 0.374033 -0.00486006 -0.0217687 0.016477
148 1 0.185917 0.06076 0.439175 -0.00609783 -0.0278697 -0.00195352
149 1 0.124352 0.999341 0.500582 -0.00812327 -0.00451085 0.0076078
150 1 0.186789 0.0614427 0.563301 -0.00468597 0.0274006 -0.00918361
151 1 0.124602 0.999541 0.625413 0.000111697 0.00605039 -0.00593454
152 1 0.187365 0.0622725 0.687644 -0.00130575 0.00058178 0.000246541
153 1 0.124847 0.999783 0.749995 -0.000328069 0.000680552 0.000571004
154 1 0.187376 0.0622884 0.812423 0.000730703 0.000435999 -0.000729626
155 1 0.124725 0.999571 0.874645 0.00210492 0.00182625 0.00318454
156 1 0.187134 0.0618066 0.937089 -0.000235102 0.000817025 -0.00971739
157 1 0.12386 0.123911 0.998806 0.0196925 0.014964 0.0376173
158 1 0.183974 0.186708 0.0602152 0.0461201 0.0337979 -0.053494
159 1 0.125756 0.124442 0.126255 0.0381809 0.107695 0.049078
160 1 0.121506 0.124819 0.249238 0.0506399 0.126037 0.00701236
161 1 0.186684 0.187335 0.311031 -0.0369889 0.225256 -0.000732733
162 1 0.126061 0.125469 0.375066 -0.0161831 -0.084837 -0.0232065
163 1 0.190418 0.189133 0.434557 -0.142963 0.132187 0.11948
164 1 0.125428 0.125623 0.499725 0.0047436 0.0120969 0.00762849
165 1 0.187583 0.187446 0.562452 -0.00336788 0.00144475 -0.00796306
166 1 0.124993 0.124937 0.625047 -0.00388984 -0.00216411 0.0182422
167 1 0.187501 0.187453 0.687448 -0.00104688 -0.000263237 -6.16587e-05
168 1 0.124926 0.124928 0.749973 0.000628462 -0.000371256 0.00107056
169 1 0.187363 0.187419 0.812483 -0.00017115 -1.914e-06 -0.00120218
170 1 0.124685 0.124736 0.874737 -0.00138187 -0.00183482 -0.00155987
171 1 0.186889 0.187206 0.93723 -0.00808829 -0.00309586 -0.0345259
172 1 0.123701 0.25073 0.998339 -0.0302961 -0.00592776 0.0709994
173 1 0.18707 0.314393 0.0606524 -0.109623 -0.0611042 -0.0550436
174 1 0.119133 0.254116 0.116896 0.0293369 0.00139495 0.33343
175 1 0.183769 0.316229 0.183772 0.0908684 -0.0908624 0.09086
176 1 0.120305 0.252284 0.375282 0.0116205 -0.146145 -0.0442639
177 1 0.182541 0.31781 0.449792 -0.0576564 0.0202552 0.153114
178 1 0.123188 0.248633 0.501259 0.0902145 0.0462391 -0.0160332
179 1 0.187106 0.312835 0.563981 -0.020231 0.0188168 -0.196785
180 1 0.124764 0.249848 0.624962 -0.0169423 -0.0165573 0.0553389
181 1 0.187435 0.312516 0.68755 0.00213225 -0.00156667 -0.00859738
182 1 0.124924 0.249997 0.749964 0.000105702 -0.00125006 0.00137956
183 1 0.18743 0.31255 0.812498 -0.00126455 0.00102499 -0.00551886
184 1 0.124723 0.250118 0.874796 -0.00432791 -0.000862167 -0.00227669
185 1 0.187275 0.312847 0.937352 -0.00281845 0.00988028 -0.0583176
186 1 0.124066 0.376154 0.99844 -0.0226334 0.000431181 0.00819627
187 1 0.185089 0.440718 0.0594464 0.024237 0.00477547 0.0174234
188 1 0.122336 0.377662 0.122339 0.027272 -0.027272 0.0272693
189 1 0.185606 0.439349 0.187073 0.0611033 0.0550299 -0.109606
190 1 0.116894 0.380866 0.245885 0.333428 -0.0293379 -0.00139521
191 1 0.187111 0.439195 0.31066 -0.0712109 -0.17769 -0.011047
192 1 0.126252 0.374242 0.375559 0.0490816 -0.0381833 -0.107691
193 1 0.186981 0.437636 0.43806 -0.0246766 0.0668896 0.0797003
194 1 0.122184 0.378016 0.50322 0.00431025 0.005075 0.0680682
195 1 0.187671 0.438483 0.563583 -0.00438004 -0.0523744 -0.0599629
196 1 0.124636 0.375407 0.625356 -0.0144359 0.0160762 0.0190977
197 1 0.187549 0.437598 0.687599 0.00146019 0.00441552 0.00241801
198 1 0.124923 0.375105 0.74998 -0.00132675 0.00141285 0.000134655
199 1 0.187452 0.437685 0.812354 0.000308383 0.00135167 -0.00206743
200 1 0.124801 0.375283 0.874711 -0.00572944 0.00303735 -0.0100495
201 1 0.187165 0.43842 0.936769 -0.014456 0.0143628 -0.0262977
202 1 0.123689 0.501705 0.998335 0.0134406 -0.0143484 0.011198
203 1 0.186982 0.563324 0.0616104 -0.00841918 0.025192 -0.0126719
204 1 0.123844 0.501561 0.124069 -0.00043155 -0.00819514 -0.0226336
205 1 0.187152 0.562649 0.187277 -0.00988028 0.0583166 -0.00281814
206 1 0.123415 0.501265 0.249643 0.0135754 -0.0375675 -0.00785992
207 1 0.187475 0.562515 0.312171 -0.00638434 0.0091641 -0.000379893
208 1 0.125055 0.499846 0.374953 -0.0203418 0.0662757 0.0259822
209 1 0.187407 0.56249 0.437588 0.00051165 0.00463314 0.000323788
210 1 0.124806 0.500226 0.500367 -0.0174587 0.0180775 0.0153181
211 1 0.187568 0.562591 0.56259 0.00250013 0.00178309 0.00024605
212 1 0.124889 0.500503 0.625472 -3.40993e-05 0.00134224 0.00135421
213 1 0.187544 0.562707 0.687623 0.000275443 0.00225508 0.00118009
214 1 0.124945 0.500193 0.749951 -0.000860655 0.00292816 0.00053979
215 1 0.18748 0.562756 0.812277 0.000451073 0.00214616 -0.0024306
216 1 0.124717 0.500526 0.874469 -0.00424074 0.00554883 -0.00628435
217 1 0.187291 0.563299 0.936717 0.00230241 -0.00226301 0.000952313
218 1 0.124634 0.625579 0.999444 -0.00133173 0.00428329 -0.00401409
219 1 0.187365 0.687668 0.062303 0.00093877 0.00237915 -0.00163598
220 1 0.124715 0.62529 0.124804 -0.00303726 0.0100495 -0.00572964
221 1 0.187449 0.687503 0.187433 -0.0010251 0.00551889 -0.00126452
222 1 0.124754 0.625125 0.249923 -0.000800691 0.00226102 -0.00118858
223 1 0.187575 0.68743 0.31238 -1.30575e-05 0.00198694 0.000374492
224 1 0.125066 0.624933 0.374928 -0.00206511 0.00778087 0.00385531
225 1 0.187548 0.687425 0.43745 0.000164977 -0.000563038 -0.00125429
226 1 0.125002 0.625046 0.500068 0.000750568 -0.00148022 -0.00185716
227 1 0.18752 0.68745 0.562513 0.000626522 -0.000938632 -0.000982909
228 1 0.124995 0.625086 0.625034 -0.000195669 0.000857505 0.000888158
229 1 0.187489 0.687512 0.687468 0.000652784 0.000178199 -0.000308854
230 1 0.124939 0.625195 0.749903 0.000192164 0.001404 -0.000117984
231 1 0.187459 0.687667 0.812269 0.000812096 -5.68465e-05 -0.000201554
232 1 0.124792 0.625451 0.874528 0.00196124 1.18649e-05 -0.000524415
233 1 0.187412 0.687749 0.937176 0.000620077 0.00132824 -0.00117726
234 1 0.124849 0.750047 0.99978 -0.00061525 -0.000724901 -0.00231998
235 1 0.187458 0.812383 0.0623523 0.00190315 -0.00218258 -0.00460023
236 1 0.124894 0.750021 0.124925 -0.00141278 -0.000134696 -0.00132671
237 1 0.187482 0.812451 0.187438 0.00156663 0.00859743 0.00213228
238 1 0.12501 0.750029 0.250002 -0.000154406 -0.00232229 0.000962542
239 1 0.187665 0.812579 0.312412 -0.00177289 -0.000897413 0.00111865
240 1 0.125125 0.749972 0.374915 -0.000122494 -0.000719521 0.000894858
241 1 0.187482 0.812364 0.437549 -0.00147071 -0.0010253 -0.00100319
242 1 0.125003 0.749896 0.5 -0.00124157 0.000220029 -0.00102178
243 1 0.187404 0.812243 0.562649 0.00103613 -0.00168107 0.00117707
244 1 0.124938 0.7499 0.625012 0.000419735 -0.000294402 0.00028434
245 1 0.18742 0.812332 0.68753 0.000322996 -0.000104752 -0.000135542
246 1 0.124904 0.750002 0.749873 0.00072679 4.26927e-05 -0.000341075
247 1 0.187435 0.812403 0.812355 0.000762211 0.000487432 8.0903e-05
248 1 0.124864 0.750049 0.874722 0.000537054 -7.16055e-05 -0.000839502
249 1 0.187434 0.812317 0.937201 0.00118712 -0.000906367 -0.00187748
250 1 0.124692 0.874447 0.999439 0.000593948 -0.00285502 -0.00346098
251 1 0.187447 0.93629 0.0614248 -0.00450362 0.0557503 0.0457693
252 1 0.124591 0.874645 0.124639 -0.0160763 -0.0190986 -0.0144356
253 1 0.187164 0.93602 0.187109 -0.0188156 0.196787 -0.0202301
254 1 0.124894 0.875105 0.25016 -0.0165607 -0.0562378 0.0173287
255 1 0.187913 0.937755 0.312272 -0.00929875 -0.00187474 -0.00180036
256 1 0.125216 0.87511 0.374868 -0.00610874 -0.0244306 0.00533975
257 1 0.186918 0.93678 0.43838 -0.0102634 0.0122136 -0.0337427
258 1 0.124698 0.874593 0.500288 -0.00123534 0.00551851 -0.00595845
259 1 0.187286 0.937035 0.562895 -0.00445599 -0.00752984 0.00715086
260 1 0.124828 0.874736 0.625142 -0.000451628 -0.00146255 0.000933291
261 1 0.187353 0.937184 0.68769 0.000759508 -0.000687848 0.000696893
262 1 0.124858 0.874798 0.749959 0.00075376 0.000172804 9.26331e-05
263 1 0.187424 0.937258 0.812371 0.000389029 0.000819111 0.00156209
264 1 0.124828 0.874774 0.874744 0.00089975 0.000147025 -0.000251782
265 1 0.187392 0.937119 0.937155 0.00286265 0.00140616 -7.23316e-05
266 1 0.250047 0.999553 0.999684 0.00610261 -0.00151015 -0.0135731
267 1 0.312779 0.0623726 0.0623588 -0.00141227 0.00348441 -0.0126046
268 1 0.251365 0.998742 0.12319 -0.0462384 0.0160327 0.0902147
269 1 0.310866 0.0654437 0.190421 -0.132182 -0.119484 -0.142965
270 1 0.250031 0.000886999 0.24937 -0.0630798 -0.0708592 -0.055608
271 1 0.316349 0.0505567 0.315817 0.0679717 -0.0522433 0.0844668
272 1 0.249104 0.998126 0.376931 0.0240456 0.0421674 -0.0535197
273 1 0.315157 0.0606357 0.439206 -0.0105508 -0.0730617 0.0789314
274 1 0.250161 0.999011 0.50091 -0.00813746 0.0295137 -0.0253318
275 1 0.312718 0.0612119 0.563531 0.012207 0.0249214 0.000365669
276 1 0.249877 0.999418 0.625511 0.00141058 -0.00123311 0.0014705
277 1 0.312546 0.0622577 0.687675 -0.00112801 -0.0034122 0.00372653
278 1 0.249965 0.999795 0.75005 3.81334e-05 8.27883e-05 0.000924234
279 1 0.312493 0.0623508 0.812476 -0.000919807 0.0015679 0.0022379
280 1 0.24999 0.9997 0.874799 -0.000904703 0.00324915 0.00357495
281 1 0.312533 0.0621459 0.937316 -0.00464383 0.0059585 -0.00361484
282 1 0.249337 0.12423 0.999257 0.00389235 0.0303412 0.0500864
283 1 0.313005 0.186916 0.0612976 -0.103584 -0.0209008 -0.0234297
284 1 0.247715 0.124719 0.120307 0.146138 0.0442721 0.0116216
285 1 0.312664 0.18897 0.186687 -0.225248 0.000736532 -0.0369746
286 1 0.250113 0.116871 0.382373 -0.047668 0.075289 -0.0318987
287 1 0.315814 0.183649 0.449444 0.0844695 -0.0679761 0.0522466
288 1 0.248902 0.122663 0.501877 0.030769 0.0599098 -0.0224361
289 1 0.312718 0.187052 0.564098 0.00249115 -0.00546261 -0.198625
290 1 0.249888 0.124539 0.625071 -0.0186259 -0.0137322 0.0434542
291 1 0.312507 0.187358 0.687592 -0.00137174 0.00130943 -0.00824692
292 1 0.249934 0.124871 0.75001 -0.000678522 0.000282725 0.00167173
293 1 0.312408 0.187407 0.812566 -0.000617709 0.000648736 0.000124194
294 1 0.24983 0.124762 0.874936 -0.000373691 0.00262242 0.00260964
295 1 0.31235 0.18728 0.93753 0.00136035 -0.00293085 -0.017156
296 1 0.249105 0.249455 0.999525 -0.00569245 0.0177386 -0.0071408
297 1 0.310658 0.312887 0.0608058 -0.0110437 0.0712116 0.177694
298 1 0.2508 0.249198 0.250803 -0.204086 0.204092 -0.20409
299 1 0.311028 0.313314 0.312666 -0.000740679 0.0369829 -0.22525
300 1 0.309604 0.308642 0.434207 0.0253874 0.217923 0.14212
301 1 0.249367 0.249968 0.499114 -0.0556066 0.0630789 0.070869
302 1 0.312269 0.312085 0.562246 -0.00179997 0.00929818 0.00187492
303 1 0.249936 0.249883 0.624675 -0.00350054 0.00347681 0.085987
304 1 0.31241 0.312333 0.687422 0.00111862 0.001773 0.000897518
305 1 0.249926 0.249927 0.74999 -0.000377787 0.00020623 0.000777852
306 1 0.312377 0.312423 0.812571 0.000374661 1.29217e-05 -0.00198689
307 1 0.249764 0.249904 0.875064 -0.000246285 -0.00064696 -0.00610865
308 1 0.312168 0.312524 0.937486 -0.000380373 0.00638464 -0.0091644
309 1 0.24964 0.376583 0.998736 -0.00785968 -0.0135777 0.037569
310 1 0.313717 0.439258 0.060665 -0.0365018 -0.0398942 0.0814965
311 1 0.245882 0.383105 0.119135 -0.0013943 -0.333431 0.0293336
312 1 0.31329 0.439786 0.183977 -0.0337967 0.0534952 0.0461196
313 1 0.313083 0.438703 0.313008 0.0209006 0.0234307 -0.103584
314 1 0.249235 0.378492 0.375182 0.00701696 -0.0506408 -0.126032
315 1 0.313059 0.437445 0.437361 0.0155219 0.0110931 -0.00517613
316 1 0.251487 0.376545 0.501028 -0.0274091 -0.0706011 0.0157576
317 1 0.31309 0.43827 0.563244 -0.00322373 -0.0500462 -0.0504625
318 1 0.250157 0.375105 0.624896 0.0173286 0.0165608 0.0562377
319 1 0.312584 0.437508 0.6876 0.00214623 -0.00183819 -0.00275524
320 1 0.25 0.374988 0.749972 0.000962593 0.000154168 0.00232223
321 1 0.312548 0.437547 0.812459 0.000989696 -0.000263348 -0.00228314
322 1 0.24992 0.375244 0.874876 -0.00118895 0.000800928 -0.00226118
323 1 0.312809 0.43798 0.93714 0.0046926 0.00752651 -0.0198777
324 1 0.250047 0.501393 0.998735 -0.00144308 -0.0402646 0.0282653
325 1 0.312657 0.563024 0.0618567 0.0141013 0.0352811 -0.00826601
326 1 0.249268 0.501662 0.123703 0.00592793 -0.070999 -0.0302975
327 1 0.312792 0.562771 0.186892 0.00309578 0.0345264 -0.00808723
328 1 0.250544 0.500476 0.249108 -0.0177363 0.0071417 -0.00569243
329 1 0.312718 0.562471 0.312353 0.00293033 0.0171554 0.00136017
330 1 0.24981 0.500335 0.375086 0.00120822 0.000739517 0.000320886
331 1 0.312616 0.562503 0.437537 -0.00146231 0.00249745 -0.0025331
332 1 0.25013 0.499934 0.499987 0.00895432 0.0281698 0.01202
333 1 0.312603 0.562559 0.562542 0.00206094 -0.000416183 -0.00315905
334 1 0.250213 0.500381 0.625376 -0.00136066 0.0052479 0.0056877
335 1 0.31264 0.562648 0.687628 -0.000803328 0.00169022 0.00107356
336 1 0.250067 0.500099 0.749996 0.000515792 0.00166259 -2.48355e-05
337 1 0.31261 0.562682 0.812331 0.000433647 0.00107435 -0.000635707
338 1 0.250077 0.500365 0.874655 -7.01991e-05 0.00299634 -0.00442828
339 1 0.31272 0.563158 0.936844 -0.00183307 0.000606287 0.000738975
340 1 0.249974 0.625445 0.999571 0.00253994 0.00109642 -0.00212565
341 1 0.312531 0.68761 0.0623366 0.00198793 0.00452829 -0.00169794
342 1 0.249881 0.625205 0.124726 0.000862399 0.00227601 -0.00432814
343 1 0.312579 0.687518 0.187366 2.05234e-06 0.00120223 -0.000171029
344 1 0.250095 0.624938 0.249767 0.000646983 0.00610847 -0.000246267
345 1 0.312591 0.687435 0.312411 -0.000648936 -0.000124049 -0.000617642
346 1 0.25005 0.624904 0.374907 -0.000420074 0.000215254 -0.000550894
347 1 0.312543 0.687439 0.43748 -0.000284332 -0.0020936 -0.00138291
348 1 0.250034 0.624955 0.499988 0.00153674 -0.000577171 -0.0013612
349 1 0.312525 0.68742 0.562539 0.00076142 -2.32591e-05 -0.000653093
350 1 0.250058 0.625033 0.625039 0.000781959 -0.000266951 -0.000613523
351 1 0.312553 0.687476 0.687508 0.000433627 -0.000362454 -0.000286659
352 1 0.25005 0.625133 0.749941 0.000626578 0.000800106 -0.000251161
353 1 0.312579 0.687626 0.812313 0.000145763 3.7047e-05 2.65343e-05
354 1 0.250027 0.625365 0.874612 0.00125115 0.000259794 -0.000633012
355 1 0.312568 0.687707 0.937222 0.00173073 0.000346555 -0.000342971
356 1 0.249992 0.750015 0.999822 0.00134996 -0.000340305 -0.00119347
357 1 0.312592 0.812372 0.0623609 0.00194082 0.00287433 0.00156465
358 1 0.250001 0.750037 0.124927 0.00124993 -0.00137964 0.000105744
359 1 0.312546 0.812553 0.187504 0.000263015 6.18662e-05 -0.00104683
360 1 0.250072 0.750011 0.249929 -0.000206275 -0.000777744 -0.000377672
361 1 0.31264 0.812409 0.312509 -0.00130933 0.00824745 -0.00137165
362 1 0.250061 0.749957 0.374956 -0.000310551 -0.00165641 0.000160602
363 1 0.312583 0.812326 0.437625 -0.00018834 -0.00456978 0.00272424
364 1 0.250012 0.749866 0.50003 0.000379367 -0.000352518 1.95734e-05
365 1 0.312529 0.812173 0.562751 0.000387459 -0.00126599 0.000698274
366 1 0.24999 0.749856 0.625065 0.000212466 -0.000446687 -9.12871e-05
367 1 0.312526 0.812297 0.687597 0.000342102 -0.000449076 0.000174837
368 1 0.250001 0.74997 0.749921 0.000539982 -0.000105669 -0.00017228
369 1 0.312553 0.812396 0.812401 0.000691296 0.000268606 0.000720822
370 1 0.250009 0.750024 0.874769 0.000602937 -7.45412e-05 -0.000110618
371 1 0.312616 0.812322 0.937237 -0.000368465 -2.32135e-06 -0.000817556
372 1 0.250127 0.87453 0.999506 -0.000289756 -0.00468869 -0.00439235
373 1 0.313102 0.936627 0.0615983 -0.00402873 0.0433137 0.0429892
374 1 0.25015 0.875039 0.124767 0.0165571 -0.0553387 -0.0169424
375 1 0.312552 0.937549 0.187585 -0.00144499 0.0079631 -0.00336794
376 1 0.250115 0.875326 0.249939 -0.00347661 -0.0859873 -0.00350039
377 1 0.312946 0.935903 0.31272 0.00546253 0.198627 0.0024907
378 1 0.250013 0.874981 0.375274 -0.0179979 -0.0453079 0.0148013
379 1 0.312762 0.936536 0.438606 0.0152541 -0.00773714 -0.0179281
380 1 0.249919 0.874501 0.500438 0.00254039 -0.00318491 0.0026681
381 1 0.312646 0.936785 0.563164 -0.00139202 -0.00514432 0.00498313
382 1 0.249926 0.874649 0.62526 -0.000259631 -0.00112963 0.000323008
383 1 0.312537 0.937135 0.687775 -0.000205334 -0.000481847 0.000828218
384 1 0.249973 0.874785 0.750021 0.000223598 0.000219042 0.00052336
385 1 0.312552 0.937293 0.812434 -0.000599963 0.00134923 0.0017138
386 1 0.250013 0.874798 0.874801 0.000629046 0.00123241 0.00100176
387 1 0.312632 0.937222 0.937232 0.000901875 0.00509992 0.00280731
388 1 0.375173 0.999779 0.999845 -0.0045641 0.010782 -0.00518479
389 1 0.437628 0.0622465 0.0624455 -0.0239488 0.0426912 0.0621251
390 1 0.374375 0.000275711 0.125431 -0.0120962 -0.00762873 0.00474392
391 1 0.439238 0.0608265 0.18592 0.0278704 0.00195195 -0.00609921
392 1 0.377335 0.998124 0.248904 -0.0599108 0.0224376 0.03077
393 1 0.439363 0.0607954 0.31516 0.0730609 -0.0789307 -0.0105503
394 1 0.377568 0.997071 0.377423 -0.0238188 0.0087047 -0.022365
395 1 0.437648 0.0623506 0.437651 0.0310833 -0.0310833 0.0310831
396 1 0.376113 0.998491 0.501474 0.0118113 0.0306334 -0.0319412
397 1 0.43875 0.0612115 0.563847 -0.00875833 0.00898584 0.01267
398 1 0.375332 0.999305 0.625681 0.000317042 -0.000162009 0.000399567
399 1 0.43776 0.0622176 0.687837 0.00202593 -0.00270567 0.00553482
400 1 0.375087 0.999797 0.750114 -0.000141805 -0.000308648 0.00168207
401 1 0.437584 0.062385 0.812524 -0.00159822 0.00105039 0.00135163
402 1 0.375109 0.999802 0.874864 -0.00389164 0.00369074 0.00466494
403 1 0.437682 0.0622557 0.937333 -0.0063687 0.00525433 0.00369179
404 1 0.375197 0.124539 0.999708 -0.00562308 0.00472016 -6.13002e-05
405 1 0.437359 0.18694 0.0625557 -0.00517667 -0.0155217 -0.0110925
406 1 0.374529 0.124935 0.126064 0.08484 0.0232033 -0.0161888
407 1 0.434204 0.190394 0.19136 0.142125 -0.0253986 -0.217926
408 1 0.383127 0.117628 0.250115 -0.0752899 0.0318992 -0.0476678
409 1 0.449442 0.184184 0.316352 0.0522427 -0.084465 0.067973
410 1 0.372305 0.127693 0.372308 0.18624 -0.186241 0.186244
411 1 0.439203 0.184841 0.439365 0.0789318 0.0105507 0.0730615
412 1 0.377421 0.12243 0.50293 -0.0223664 0.0238197 -0.00870627
413 1 0.438604 0.187237 0.563465 -0.0179271 -0.0152544 0.00773758
414 1 0.375381 0.124537 0.625349 0.016548 -0.0171189 0.0276981
415 1 0.437623 0.187415 0.687675 0.00272406 0.000188422 0.0045698
416 1 0.375035 0.124886 0.750079 -7.49379e-05 -0.000119635 0.00168157
417 1 0.437478 0.187455 0.812563 -0.00138298 0.000284275 0.00209374
418 1 0.374991 0.124867 0.87498 -0.0010019 0.00102367 0.00282396
419 1 0.437535 0.187383 0.937498 -0.00253313 0.00146234 -0.00249721
420 1 0.375083 0.250188 0.999666 0.000320666 -0.00120752 -0.000738926
421 1 0.438057 0.313018 0.0623654 0.0796998 0.0246756 -0.0668918
422 1 0.375179 0.250764 0.121509 -0.126032 -0.00701773 0.0506375
423 1 0.449789 0.317457 0.182191 0.153116 0.0576641 -0.020265
424 1 0.434555 0.30958 0.310868 0.119484 0.142966 -0.132179
425 1 0.38237 0.249886 0.38313 -0.0319036 0.0476685 -0.0752906
426 1 0.439172 0.314082 0.439241 -0.00195017 0.00609818 0.0278686
427 1 0.376928 0.250894 0.501875 -0.0535207 -0.0240443 -0.042167
428 1 0.438377 0.31308 0.563221 -0.033741 0.010263 -0.012212
429 1 0.375271 0.249986 0.62502 0.0148007 0.0179979 0.0453072
430 1 0.437546 0.312516 0.687637 -0.00100337 0.00147071 0.00102527
431 1 0.374954 0.249937 0.750044 0.000160692 0.000310464 0.0016562
432 1 0.437447 0.312451 0.812576 -0.00125442 -0.000165052 0.000563032
433 1 0.374904 0.249949 0.875097 -0.000551265 0.000419846 -0.000215307
434 1 0.437585 0.312591 0.937511 0.000323742 -0.000511628 -0.00463332
435 1 0.37495 0.374943 0.000154795 0.0259826 0.0203414 -0.0662749
436 1 0.437578 0.438008 0.0618416 -0.0232293 -0.0158772 0.0167857
437 1 0.375556 0.373746 0.125759 -0.107692 -0.0490776 0.0381781
438 1 0.439221 0.438376 0.186143 -0.0135821 0.0176717 -0.0103043
439 1 0.375279 0.379694 0.247717 -0.0442669 -0.0116221 0.14614
440 1 0.437626 0.437642 0.312782 -0.00348536 0.0126049 -0.00141153
441 1 0.375063 0.373937 0.374532 -0.0232014 0.016187 0.0848384
442 1 0.437752 0.437556 0.437631 -0.0426905 -0.0621245 -0.0239494
443 1 0.37403 0.374229 0.499379 0.0164744 0.00485891 0.0217675
444 1 0.437223 0.437303 0.562418 0.00438329 0.00374512 0.0050571
445 1 0.374865 0.374783 0.624891 0.00533953 0.00610885 0.0244305
446 1 0.437402 0.437393 0.687541 0.00159742 0.000918882 0.00488001
447 1 0.374912 0.374873 0.750029 0.000894902 0.000122571 0.000719613