ITEM: TIMESTEP
0
ITEM: NUMBER OF ATOMS
1026
ITEM: BOX BOUNDS pp pp pp
0.0000000000000000e+00 2.2857118000000000e+01
0.0000000000000000e+00 2.2857118000000000e+01
0.0000000000000000e+00 2.2857118000000000e+01
ITEM: ATOMS id type xs ys zs fx fy fz
1 1 0.235396 0.228018 0.127192 0.160648 -0.0625497 -0.134053
2 1 0.288391 0.304833 0.156662 -0.0419295 -0.00435046 0.10295
3 1 0.221362 0.139714 0.211844 0.126484 0.113802 0.166253
4 1 0.156659 0.211607 0.195168 0.102949 0.0419449 0.00435159
5 1 0.360284 0.288157 0.221365 -0.113806 -0.166253 0.126481
6 1 0.27198 0.372809 0.235399 0.0625644 0.134046 0.16065
7 1 0.286308 0.1413 0.284866 -0.165928 0.154809 -0.0854974
8 1 0.358698 0.215135 0.28631 -0.154808 0.0854982 -0.165929
9 1 0.12719 0.264602 0.271983 -0.134051 -0.160654 0.0625499
10 1 0.195165 0.343339 0.288394 0.00434005 -0.102943 -0.0419489
11 1 0.284863 0.213691 0.358701 -0.0854967 0.165926 -0.154809
12 1 0.211841 0.278636 0.360287 0.166255 -0.126487 -0.1138
13 1 0.9997 0.999905 0.999884 -0.00461929 -0.00542247 -0.00554342
14 1 0.0625672 0.0628335 0.062783 -0.00340866 0.00756796 -0.0204209
15 1 0.99967 0.999538 0.124782 0.0203209 0.0226603 -0.00671756
16 1 0.0627097 0.0625259 0.186358 -0.0789927 -0.0937096 -0.0255544
17 1 4.49666e-05 0.99996 0.249923 -0.0125748 0.00279793 -0.000334714
18 1 0.0619549 0.0621434 0.313424 0.0396638 -0.00159735 -0.00113746
19 1 0.999872 0.999763 0.375263 -0.0228278 -0.00606188 0.00616954
20 1 0.0619105 0.0619582 0.438217 0.0862944 0.0259165 -0.0589864
21 1 0.999731 0.999614 0.500347 0.00965474 0.000452076 -0.00425817
22 1 0.0625801 0.0624855 0.562599 -0.00333684 -0.0032032 0.0043711
23 1 0.999932 0.99987 0.625073 -0.00111469 -0.001598 0.00286716
24 1 0.0624115 0.0623873 0.687566 -0.000288753 -0.000692189 0.00332158
25 1 0.999817 0.999821 0.749884 -0.00070787 -0.00118301 0.0011302
26 1 0.0622489 0.0622644 0.812258 -0.00116168 -0.00156185 -0.00199266
27 1 0.999484 0.999538 0.87447 0.0025113 0.0010194 -0.000963873
28 1 0.0615468 0.0615455 0.936511 0.0067464 0.00494386 -0.00985999
29 1 0.998711 0.124044 0.998624 0.0455898 -0.00140383 0.0504871
30 1 0.0604522 0.185184 0.0603865 0.0689682 0.0488065 -0.00215771
31 1 7.59922e-05 0.124985 0.125039 -0.0240214 -0.0249066 -0.0111842
32 1 0.0582765 0.189197 0.188632 -0.00596961 -0.0938103 -0.0259317
33 1 0.998789 0.123863 0.250258 0.0653795 0.0695545 0.0107812
34 1 0.0619571 0.187181 0.312292 -0.112026 0.0900778 0.10404
35 1 0.999546 0.124672 0.375316 -0.00998053 0.0105401 0.000533809
36 1 0.0610722 0.186034 0.43882 -0.00344665 0.00128689 0.035266
37 1 0.999401 0.124378 0.500749 -0.0117344 -0.000338592 -0.000152674
38 1 0.0615824 0.186858 0.563357 0.0463157 -0.0058903 -0.0335442
39 1 0.999601 0.124625 0.625444 0.00534578 -0.00109255 -0.00531635
40 1 0.0623691 0.187408 0.687631 0.00140469 -0.0009376 -0.00222636
41 1 0.99983 0.124913 0.749996 -9.84967e-05 -0.00178662 -0.000540317
42 1 0.062372 0.187499 0.812434 -0.00132403 -0.000650898 -0.00503227
43 1 0.999529 0.124786 0.874516 -0.000711221 -0.0014643 -0.0020862
44 1 0.0616841 0.187407 0.936849 0.00622131 -0.016769 -0.0290073
45 1 0.998936 0.249989 0.998615 0.0346333 -0.00307291 0.0564823
46 1 0.0600742 0.314804 0.0597683 0.0755898 -0.0325693 -0.0351164
47 1 0.999511 0.250214 0.123169 -0.0268986 0.0187853 0.0372216
48 1 0.0647949 0.308369 0.18701 5.43142e-05 0.0559615 0.00285895
49 1 0.999856 0.250853 0.251422 -0.0415158 0.00980945 -0.03752
50 1 0.0545418 0.316458 0.315679 0.0875665 -0.00819923 0.0749841
51 1 0.998061 0.249667 0.377001 0.0752796 -0.00927591 -0.0521478
52 1 0.0609227 0.314315 0.439767 -0.0273165 -0.00907717 -0.0350892
53 1 0.999204 0.249895 0.500953 0.00898378 -0.00101374 -0.0188919
54 1 0.0616915 0.312562 0.563303 0.0177538 0.00721613 -0.0167885
55 1 0.999563 0.249928 0.625441 -0.00268698 0.00181898 0.00333645
56 1 0.0623853 0.31254 0.687585 -0.00131975 -0.000698562 0.000654673
57 1 0.999844 0.250026 0.749991 -0.000130665 -0.00058362 0.000390191
58 1 0.0623511 0.312649 0.812375 0.00189597 0.00117679 -9.38405e-06
59 1 0.999539 0.250078 0.874507 -0.0031957 -0.00284273 -0.00140727
60 1 0.0614557 0.313246 0.93654 0.034049 0.0127428 0.0115936
61 1 0.998748 0.376052 0.998701 -0.00726816 -0.00461438 0.000247407
62 1 0.0609532 0.439045 0.060956 0.0488019 -0.0488028 0.0488011
63 1 0.999518 0.374778 0.124705 0.0296777 0.0235878 0.0421835
64 1 0.0597655 0.439924 0.185198 -0.0351165 -0.0755885 0.0325689
65 1 0.997694 0.376145 0.248585 0.125377 0.038789 0.0354899
66 1 0.0603837 0.439546 0.314817 -0.00215716 -0.0689687 -0.0488064
67 1 0.997782 0.376766 0.377002 0.000867599 0.00665752 0.00712746
68 1 0.0627802 0.437431 0.437168 -0.0204183 0.00340647 -0.00757032
69 1 0.998882 0.37602 0.50123 0.0280853 0.00654851 -0.0237103
70 1 0.0616695 0.438466 0.563408 0.00967456 -0.00648583 0.00402834
71 1 0.999562 0.375283 0.625433 -0.00181838 0.000548503 0.00375707
72 1 0.0623328 0.437727 0.687676 -0.000751712 0.00114228 0.00119238
73 1 0.999818 0.375148 0.749956 -0.000279033 0.000963623 0.00130898
74 1 0.0623995 0.43766 0.812361 0.000131568 0.00069825 -0.00209619
75 1 0.999454 0.37544 0.874427 0.000759187 0.00196053 -0.000106794
76 1 0.0621527 0.437884 0.936945 -0.00160792 0.00148157 -0.000961041
77 1 0.999077 0.500921 0.99908 0.00597943 -0.00597956 0.00597929
78 1 0.0621138 0.563056 0.0621555 -0.00148139 0.000960957 -0.00160784
79 1 0.998698 0.50125 0.123949 0.000247929 0.00726777 0.00461468
80 1 0.0616978 0.563022 0.18725 -0.00247396 0.0116223 -0.0127266
81 1 0.998612 0.501062 0.250012 0.0564826 -0.0346335 0.00307276
82 1 0.0620654 0.562685 0.31278 -0.020871 0.0310651 0.00894267
83 1 0.998621 0.501287 0.375957 0.0504857 -0.0455883 0.00140384
84 1 0.0625206 0.562557 0.43761 -0.00340875 0.0198522 0.000696193
85 1 0.999881 0.500298 0.500096 -0.00554323 0.00461931 0.00542236
86 1 0.0623493 0.562753 0.562719 -0.00425339 -4.63724e-05 0.000763805
87 1 0.999611 0.500514 0.625438 0.00344506 -0.00191455 -0.000895781
88 1 0.0623965 0.562739 0.687608 0.000585375 -7.78346e-05 0.000313315
89 1 0.999827 0.500228 0.749988 -0.000552852 0.000889643 -0.000386452
90 1 0.0623093 0.562769 0.812252 -0.000807911 -3.79617e-06 0.000328229
91 1 0.999662 0.500341 0.8746 -0.000564287 0.000289104 -0.00285607
92 1 0.0619259 0.5632 0.936779 0.00452332 -0.00346879 0.00177178
93 1 0.999657 0.625401 0.999665 -0.000289007 0.00285602 -0.000564199
94 1 0.0623387 0.68764 0.0624023 -0.00069819 0.00209611 0.00013158
95 1 0.999597 0.62541 0.124758 -0.00080578 0.00216046 -0.00324982
96 1 0.0623678 0.687589 0.18748 0.000634433 -0.00140191 -5.91314e-05
97 1 0.999688 0.62527 0.250067 -0.00134507 0.00233393 0.000149672
98 1 0.0624708 0.687509 0.312531 0.000216463 0.000318594 0.0010887
99 1 0.9998 0.62523 0.375194 0.000841668 -0.000928385 0.0018174
100 1 0.0625798 0.687492 0.43745 -0.000318228 0.00116681 0.000190031
101 1 0.999992 0.625148 0.500068 0.00021158 0.00187133 0.000819481
102 1 0.0624605 0.687538 0.56254 -0.000726253 -0.000305049 -0.000667182
103 1 0.99988 0.625168 0.625073 -0.000900323 -0.000572212 -0.000191751
104 1 0.0624094 0.687548 0.687453 0.000379605 -0.000178893 7.78408e-06
105 1 0.999822 0.625207 0.749903 0.000374015 -0.000256813 0.000374733
106 1 0.0623082 0.687671 0.812254 0.000895936 -0.000411057 1.0098e-05
107 1 0.999647 0.625381 0.874593 0.0016247 -0.0011759 0.000540124
108 1 0.0621999 0.687791 0.937151 -5.75806e-05 -0.0010797 0.000429549
109 1 0.999771 0.750013 0.999829 -0.000889598 0.000386425 -0.00055281
110 1 0.0622712 0.812325 0.0623355 -0.0011422 -0.00119232 -0.000751643
111 1 0.999856 0.750039 0.124969 -7.54957e-06 -0.000839813 -0.000430302
112 1 0.0624606 0.812445 0.187539 -0.00135489 -0.000355335 0.000469592
113 1 0.999937 0.750004 0.250047 -9.46817e-05 0.000370898 -0.000122753
114 1 0.0625116 0.812425 0.312564 0.00268712 0.00325792 0.000153218
115 1 0.999986 0.749975 0.375053 0.00108592 0.000563914 0.00129888
116 1 0.0626189 0.812479 0.437389 -0.000879404 -0.00472887 0.00102791
117 1 5.84663e-05 0.749996 0.499947 -0.000592667 -0.00131922 0.000738345
118 1 0.0623731 0.812313 0.562566 0.000141488 0.00190459 -0.00190397
119 1 0.999904 0.74996 0.624989 0.000157071 0.000183301 -0.000533988
120 1 0.0623622 0.812366 0.687451 0.000339945 -0.000218474 -8.60348e-05
121 1 0.999819 0.750011 0.749845 0.000786704 -0.000237591 -0.000250671
122 1 0.0622865 0.812379 0.812288 0.00104349 -0.000618251 -0.000538618
123 1 0.99972 0.750054 0.874723 0.000675297 -0.000730983 0.000126973
124 1 0.0622213 0.812325 0.937206 0.000408437 -0.00148405 -0.00085492
125 1 0.999484 0.874563 0.999613 0.00191441 0.000895526 0.00344491
126 1 0.061532 0.936593 0.0616723 0.00648549 -0.00402897 0.00967419
127 1 0.999664 0.87467 0.12493 -3.443e-05 -0.00107203 0.000172038
128 1 0.0619027 0.93689 0.187589 0.0287082 0.0276471 -0.00101382
129 1 0.999746 0.874733 0.250109 -0.00258385 -0.00429516 -0.0033478
130 1 0.0618149 0.936841 0.313014 0.0590767 0.0629359 -0.00474116
131 1 0.999775 0.874703 0.375246 0.00599558 0.00814558 0.000492994
132 1 0.0627862 0.937635 0.437197 0.000444704 -1.76543e-05 0.00112271
133 1 7.78921e-05 0.874959 0.499908 -0.00126417 -0.00193796 0.00110644
134 1 0.0623085 0.937215 0.562677 -0.000954665 -0.0021175 0.00345399
135 1 0.999886 0.874835 0.625014 -0.000241551 -0.000941076 0.00105317
136 1 0.0622711 0.937223 0.687588 0.000777328 0.000858402 -0.00183867
137 1 0.999769 0.874792 0.749868 0.0006879 -0.000119319 -0.000476471
138 1 0.0622142 0.937159 0.812221 0.000445211 -0.000877717 -0.000875784
139 1 0.999594 0.874705 0.874663 0.000211675 0.00137397 0.00180814
140 1 0.0618475 0.936876 0.936899 -0.00126897 0.00424476 0.00479955
141 1 0.123979 0.998771 0.998885 -0.00654853 0.0237114 0.0280869
142 1 0.185683 0.0602341 0.0609254 0.00907703 0.0350898 -0.0273158
143 1 0.123061 0.997893 0.123159 0.0158598 -0.0288965 0.0181913
144 1 0.18477 0.0519818 0.18486 -0.0559325 0.041027 -0.0854759
145 1 0.123764 0.999385 0.251231 0.0434265 -0.0503237 0.000755098
146 1 0.191959 0.066351 0.308064 -0.21114 -0.177688 0.130554
147 1 0.126043 0.000966872 0.373826 -0.0337859 -0.055898 0.0515768
148 1 0.18626 0.0610071 0.43888 0.00266835 -0.0160131 -0.0352758
149 1 0.124522 0.999465 0.500438 -0.00662043 -0.0136307 0.0165735
150 1 0.186911 0.061443 0.563304 -0.000726753 0.0357473 -0.0242367
151 1 0.124654 0.999534 0.625398 0.000749915 0.00528637 -0.00621496
152 1 0.187385 0.0622704 0.687639 -0.000286908 0.000937112 -0.00142349
153 1 0.124847 0.999759 0.74997 -0.000501836 -0.000609507 -0.00056464
154 1 0.187375 0.0622496 0.812388 0.000788487 -0.00270597 -0.00420337
155 1 0.124651 0.999413 0.874479 0.000802508 -0.000850069 -0.00079079
156 1 0.187184 0.0613581 0.93671 -0.00820223 7.66817e-05 -0.0216757
157 1 0.123232 0.122999 0.997785 -0.00665774 -0.00712734 0.000867442
158 1 0.18354 0.184322 0.0545445 0.00819558 -0.0749833 0.087563
159 1 0.128855 0.127234 0.127459 -0.123066 -0.0236605 -0.0504607
160 1 0.120637 0.122886 0.249776 0.103771 0.207299 -0.0709463
161 1 0.185861 0.182741 0.311369 0.198599 0.109276 0.0277061
162 1 0.125124 0.124768 0.376036 -0.0215429 -0.105405 -0.045352
163 1 0.190768 0.189606 0.433887 -0.1558 0.011646 0.179651
164 1 0.125672 0.125539 0.499698 -0.0140028 -0.00450172 0.0199233
165 1 0.187512 0.187277 0.562522 -0.0117886 -0.00722131 0.00055438
166 1 0.124977 0.124892 0.625055 -0.0048748 -0.00404218 0.0220078
167 1 0.187487 0.187426 0.687475 -0.00149019 -0.00123446 -0.000431566
168 1 0.12491 0.124904 0.749986 1.14649e-05 0.000234005 0.000140913
169 1 0.187367 0.187386 0.812462 -8.14284e-05 0.00097251 0.00270765
170 1 0.124605 0.124623 0.874736 -0.0152509 -0.0158404 -0.0313513
171 1 0.186904 0.186897 0.936476 -0.00174652 -0.0124632 0.024294
172 1 0.123854 0.251416 0.997697 -0.0387893 -0.035491 0.125377
173 1 0.191629 0.312991 0.0647977 -0.0559644 -0.00285664 4.94135e-05
174 1 0.120234 0.251514 0.11255 0.0292765 0.134402 -0.0595126
175 1 0.183795 0.316203 0.183798 0.0372961 -0.0373007 0.0373061
176 1 0.117248 0.249893 0.37978 -0.102604 -0.047638 -0.0774774
177 1 0.184857 0.315228 0.448019 -0.0854751 0.0559317 -0.0410227
178 1 0.123417 0.248563 0.501154 0.0512696 0.0230842 0.00491474
179 1 0.187149 0.312749 0.5639 -0.00882695 0.00293587 -0.17429
180 1 0.12477 0.249822 0.624933 -0.0181551 -0.0146383 0.0565711
181 1 0.187437 0.312502 0.687555 0.00133256 -0.00164688 -0.00868008
182 1 0.124944 0.250006 0.750003 -3.91791e-05 -0.000472257 0.000609956
183 1 0.187489 0.312515 0.812607 0.00140365 0.00202167 -0.0041495
184 1 0.124821 0.250207 0.87499 -0.0146084 0.0113348 -0.0325974
185 1 0.187767 0.312773 0.937883 0.0175918 0.0201121 -0.0524604
186 1 0.12522 0.375296 0.999521 -0.0235883 -0.0421826 0.0296782
187 1 0.185195 0.440233 0.060077 0.0325695 0.0351158 0.0755876
188 1 0.12297 0.377029 0.122972 0.0431901 -0.0431926 0.0431942
189 1 0.187007 0.435204 0.191632 0.00286202 -5.85362e-05 -0.0559543
190 1 0.112548 0.379764 0.248487 -0.0595137 -0.0292789 -0.134401
191 1 0.18863 0.441722 0.310804 -0.0259366 0.00597388 0.0938145
192 1 0.127457 0.371143 0.372767 -0.0504592 0.123066 0.0236599
193 1 0.186356 0.437289 0.437475 -0.0255542 0.0789922 0.0937093
194 1 0.123156 0.376938 0.502109 0.0181917 -0.0158603 0.0288979
195 1 0.187586 0.438096 0.563111 -0.001014 -0.028709 -0.0276483
196 1 0.124687 0.375311 0.625197 -0.0135964 0.015313 0.0343247
197 1 0.187537 0.437538 0.687556 0.000469615 0.00135492 0.000355358
198 1 0.124963 0.375068 0.750015 0.000348336 -4.28039e-05 -0.000269051
199 1 0.187477 0.437631 0.812412 -5.91241e-05 -0.000634419 0.00140196
200 1 0.125014 0.375154 0.874962 -0.00195955 0.000801997 -0.0154099
201 1 0.187247 0.438301 0.936979 -0.0127265 0.00247347 -0.0116215
202 1 0.123947 0.5013 0.998751 0.0046146 -0.000247494 -0.00726776
203 1 0.186753 0.563461 0.0614584 -0.0127426 -0.0115923 0.0340472
204 1 0.124703 0.50048 0.125223 0.0421843 -0.0296794 -0.0235861
205 1 0.187225 0.562118 0.18777 -0.0201118 0.0524606 0.0175919
206 1 0.123166 0.500488 0.249788 0.0372214 0.0268969 -0.0187861
207 1 0.187624 0.562472 0.312119 -0.0107427 0.00462984 0.000592189
208 1 0.125037 0.499922 0.375016 -0.0111846 0.0240237 0.0249071
209 1 0.187262 0.562567 0.437711 -0.00254225 0.0235286 0.011372
210 1 0.12478 0.500329 0.500464 -0.00671779 -0.020319 -0.0226584
211 1 0.187534 0.562625 0.562641 0.00140436 0.000866198 0.000439068
212 1 0.124928 0.500335 0.625331 0.000172031 3.43172e-05 0.00107193
213 1 0.187521 0.562646 0.687598 -0.000112171 0.000393432 -0.000187328
214 1 0.124966 0.500142 0.749962 -0.000430311 7.56788e-06 0.000839843
215 1 0.187469 0.562699 0.812316 -0.000319014 0.000636389 -0.000992999
216 1 0.124755 0.500401 0.874591 -0.00324986 0.000805828 -0.00216046
217 1 0.187256 0.563188 0.936821 0.000343354 -7.90394e-05 -0.000456326
218 1 0.124558 0.625574 0.999457 -0.00196048 0.000106912 0.000759084
219 1 0.18735 0.687626 0.0623539 -0.00117679 9.49133e-06 0.0018959
220 1 0.124844 0.625039 0.125017 -0.000801835 0.0154091 -0.00195931
221 1 0.187483 0.687394 0.187491 -0.00202166 0.00414958 0.00140368
222 1 0.124771 0.624951 0.249977 0.00149035 0.00703272 -0.00338775
223 1 0.187577 0.687399 0.312379 0.000225091 0.000367402 -0.000612624
224 1 0.125058 0.624875 0.374899 -0.00217941 0.0110504 0.0028231
225 1 0.187509 0.687447 0.437461 -0.000969801 0.000520393 -0.000393375
226 1 0.124945 0.625101 0.500111 0.00080108 -0.00217584 -0.00199344
227 1 0.187493 0.687483 0.562539 0.000416378 -0.000224961 -0.000118536
228 1 0.12498 0.625084 0.625058 -0.000232795 0.000428886 0.000439728
229 1 0.187477 0.687499 0.687479 4.9749e-05 -0.000123527 -0.000251929
230 1 0.124935 0.625147 0.749919 -6.46398e-05 0.00027334 -0.00021356
231 1 0.187435 0.687633 0.812288 0.000395113 -0.000281451 -0.000232901
232 1 0.124784 0.625379 0.874591 0.00126448 -0.000778187 -1.15376e-05
233 1 0.187373 0.687745 0.937188 0.000605804 0.00102924 -0.00111211
234 1 0.12485 0.750046 0.999821 -0.000963577 -0.00130897 -0.00027904
235 1 0.187458 0.812416 0.062388 0.000698543 -0.000654672 -0.00131969
236 1 0.12493 0.749986 0.124965 4.28138e-05 0.000269037 0.000348358
237 1 0.187497 0.812446 0.18744 0.00164684 0.00868013 0.00133256
238 1 0.125027 0.75 0.249998 0.000386011 -0.00141599 0.000558695
239 1 0.187646 0.812568 0.31242 -0.00144041 0.000594949 0.000567915
240 1 0.125116 0.749968 0.374906 -0.000279772 -0.000319323 -0.000123475
241 1 0.187483 0.812387 0.437528 -0.000624497 0.0011133 -0.0023631
242 1 0.124991 0.749918 0.499999 -0.00114189 0.000210204 -0.00132293
243 1 0.187421 0.812275 0.562625 0.00116837 -0.00118286 0.000608176
244 1 0.124934 0.749912 0.625015 0.000577369 -0.000560243 0.000337413
245 1 0.187418 0.812324 0.687514 0.000378362 -0.000253954 -0.000472338
246 1 0.124892 0.749975 0.749875 0.000548942 -0.000196346 -0.000334306
247 1 0.187416 0.812366 0.812328 0.000577498 -0.000678551 -0.000615699
248 1 0.124839 0.750036 0.874742 0.000550145 -0.000261642 -0.000722823
249 1 0.187404 0.812321 0.937231 0.000394423 -0.000547614 -0.00104199
250 1 0.124715 0.874568 0.999565 -0.000548544 -0.00375718 -0.00181844
251 1 0.187436 0.936698 0.0616942 -0.00721639 0.0167871 0.0177531
252 1 0.124687 0.874804 0.12469 -0.0153129 -0.0343248 -0.0135963
253 1 0.187249 0.936101 0.187152 -0.002936 0.174288 -0.00882687
254 1 0.124929 0.875158 0.250134 -0.0173356 -0.056143 0.0155633
255 1 0.187842 0.937783 0.312283 -0.0172086 -0.00845434 0.000382604
256 1 0.125218 0.875172 0.374853 -0.00597767 -0.0263687 0.00564307
257 1 0.187002 0.936816 0.438326 -0.0087832 0.035317 -0.0531109
258 1 0.124735 0.874618 0.500268 -0.000892341 0.00811409 -0.00795943
259 1 0.187351 0.9371 0.562818 -0.00259625 -0.00433241 0.00407992
260 1 0.124855 0.874749 0.625114 -6.1237e-05 -0.000628025 0.000185334
261 1 0.187377 0.937189 0.687649 0.00128472 -0.000940434 0.000462452
262 1 0.124851 0.874769 0.749918 0.000821252 -0.00101985 -9.02193e-05
263 1 0.187416 0.937181 0.81229 7.94211e-05 -0.00142716 -0.000632633
264 1 0.124783 0.874698 0.874689 0.0011848 -0.00126087 -0.00120856
265 1 0.187346 0.936935 0.936988 0.00193591 -0.00309764 -0.00383236
266 1 0.250103 0.999048 0.999207 0.00101368 0.0188929 0.00898474
267 1 0.313964 0.061181 0.0610749 -0.00128719 -0.0352654 -0.00344511
268 1 0.251435 0.998847 0.12342 -0.0230835 -0.00491444 0.0512689
269 1 0.310392 0.066114 0.190771 -0.0116429 -0.179654 -0.155799
270 1 0.250675 0.999597 0.2497 -0.0136312 -0.213761 -0.0147798
271 1 0.315927 0.0519925 0.315342 0.0374057 0.0288201 0.0552079
272 1 0.24911 0.998544 0.37645 0.0173209 0.0227136 -0.028365
273 1 0.315069 0.0611447 0.438696 -0.00233788 -0.0773527 0.078939
274 1 0.25022 0.999243 0.500652 -0.00185334 0.0223389 -0.016607
275 1 0.312711 0.061387 0.563303 0.00669805 0.0179765 0.00867867
276 1 0.249938 0.999465 0.625446 0.00222101 -0.000648788 0.00111235
277 1 0.312557 0.0622622 0.687642 -0.000694479 -0.00207447 0.00214955
278 1 0.249979 0.999771 0.750008 0.000556377 -0.000625883 -0.000188489
279 1 0.31256 0.062281 0.812399 0.00142511 -0.000502968 -0.0020464
280 1 0.250068 0.999504 0.874596 -0.000565526 -0.000303601 0.000165561
281 1 0.313002 0.0616743 0.936905 0.00694369 -0.004432 -0.0258746
282 1 0.250332 0.123 0.998063 0.00927504 0.0521477 0.0752792
283 1 0.312818 0.187709 0.0619599 -0.0900753 -0.104038 -0.112027
284 1 0.250105 0.120221 0.117251 0.047635 0.0774788 -0.1026
285 1 0.317257 0.188632 0.185864 -0.109278 -0.0277049 0.198601
286 1 0.250296 0.117454 0.381153 -0.0308498 0.0596474 -0.0256714
287 1 0.315339 0.184072 0.448009 0.0552057 -0.0374043 -0.0288197
288 1 0.248984 0.122944 0.501508 0.0182366 0.0470767 -0.0125543
289 1 0.312864 0.186901 0.564025 0.00186535 -0.00894082 -0.147698
290 1 0.249912 0.124562 0.625034 -0.015042 -0.0171902 0.0501215
291 1 0.312532 0.187339 0.687606 -0.00118802 0.00146205 -0.00958238
292 1 0.249955 0.124853 0.750006 -0.000255945 -0.000560916 0.00104425
293 1 0.31242 0.187408 0.812565 0.00155524 -3.63456e-05 -0.00176984
294 1 0.24995 0.124595 0.874862 0.0133574 -0.0106545 -0.0229315
295 1 0.312509 0.187208 0.937401 0.00872225 0.000604274 -0.0280325
296 1 0.249145 0.248579 0.999859 -0.00981058 0.0375196 -0.0415126
297 1 0.310801 0.311369 0.0582793 0.0938084 0.0259303 -0.00596856
298 1 0.250116 0.249882 0.250119 -0.0623728 0.0623768 -0.0623792
299 1 0.311366 0.314138 0.31726 0.0277041 -0.1986 -0.109277
300 1 0.308061 0.308039 0.43365 0.130554 0.211141 0.177687
301 1 0.249697 0.249323 0.500404 -0.0147807 0.0136314 0.213759
302 1 0.312281 0.312156 0.562218 0.000382492 0.0172086 0.00845469
303 1 0.249958 0.249835 0.624803 -0.000382685 0.000698498 0.0795932
304 1 0.312417 0.312352 0.687433 0.000567907 0.0014404 -0.000594914
305 1 0.249933 0.249922 0.750022 5.70747e-06 0.000248815 0.000357255
306 1 0.312376 0.312422 0.812602 -0.000612616 -0.000225129 -0.000367374
307 1 0.249824 0.249856 0.875195 0.00371304 0.00425032 -0.033382
308 1 0.312116 0.312374 0.937529 0.000592137 0.0107429 -0.00463
309 1 0.249785 0.376832 0.999513 -0.0187859 -0.0372217 -0.0268979
310 1 0.314814 0.439615 0.060455 -0.0488057 0.00215874 0.068966
311 1 0.248484 0.387451 0.120237 -0.134403 0.0595089 0.0292765
312 1 0.315676 0.445457 0.183543 0.0749879 -0.0875631 0.00819695
313 1 0.312289 0.438041 0.312821 0.104036 0.112025 -0.0900763
314 1 0.249773 0.379361 0.377115 -0.0709462 -0.10377 -0.207303
315 1 0.313421 0.438043 0.437858 -0.00113729 -0.0396632 0.00159757
316 1 0.251228 0.376234 0.500616 0.000754501 -0.0434266 0.0503241
317 1 0.313012 0.438183 0.56316 -0.00474114 -0.0590765 -0.0629355
318 1 0.250131 0.375069 0.624843 0.0155633 0.0173355 0.0561429
319 1 0.312561 0.437487 0.687576 0.000153259 -0.00268716 -0.00325791
320 1 0.249995 0.374971 0.750001 0.000558709 -0.000386023 0.00141601
321 1 0.312529 0.437528 0.812492 0.00108877 -0.000216456 -0.000318589
322 1 0.249975 0.375227 0.87505 -0.00338774 -0.00149024 -0.00703313
323 1 0.312777 0.437933 0.937316 0.00894278 0.0208714 -0.0310657
324 1 0.250009 0.501386 0.998939 0.00307283 -0.0564828 0.0346343
325 1 0.312591 0.563152 0.0616869 0.0167687 0.0290081 0.00622045
326 1 0.248582 0.502304 0.123857 0.0354886 -0.12538 -0.0387884
327 1 0.313101 0.563525 0.186906 0.0124633 -0.0242911 -0.00174631
328 1 0.25142 0.500142 0.249148 -0.037517 0.0415194 -0.00981098
329 1 0.31279 0.5626 0.312512 -0.000604628 0.0280323 0.00872233
330 1 0.250255 0.501209 0.376138 0.0107819 -0.0653801 -0.0695556
331 1 0.312841 0.562876 0.437924 -0.0016383 0.0054379 0.00303721
332 1 0.24992 0.499953 0.500041 -0.000334723 0.0125751 -0.00279776
333 1 0.312548 0.562563 0.562573 0.00116896 0.00201838 0.00106378
334 1 0.250106 0.500252 0.625268 -0.00334788 0.00258382 0.0042951
335 1 0.312588 0.562593 0.687599 -0.00147705 0.00100177 0.000740246
336 1 0.250044 0.500061 0.749997 -0.000122694 9.4697e-05 -0.000370878
337 1 0.312586 0.562649 0.812351 -0.000369486 0.000535549 -0.000403768
338 1 0.250065 0.50031 0.874731 0.0001498 0.00134515 -0.00233398
339 1 0.312665 0.563146 0.936855 -0.00247355 0.00356536 -0.0017424
340 1 0.249921 0.625494 0.999542 0.00284267 0.00140715 -0.00319566
341 1 0.312499 0.687568 0.0623748 0.000650889 0.0050323 -0.001324
342 1 0.249791 0.625011 0.124824 -0.0113347 0.032596 -0.014608
343 1 0.312612 0.687539 0.18737 -0.000972546 -0.00270742 -8.13704e-05
344 1 0.250143 0.624806 0.249826 -0.00425013 0.0333815 0.00371282
345 1 0.31259 0.687437 0.312423 3.62837e-05 0.00176989 0.0015552
346 1 0.25003 0.624971 0.375008 0.00290421 0.00342654 0.00133593
347 1 0.31254 0.687502 0.437538 0.000184576 7.34481e-05 0.000514405
348 1 0.249974 0.625026 0.500062 0.000163015 0.00218397 0.00093203
349 1 0.312506 0.687458 0.562571 0.000141192 0.000956239 0.0003543
350 1 0.250038 0.625037 0.625063 0.000218989 -0.00074578 -0.000765239
351 1 0.312536 0.687468 0.687514 0.000361501 -0.000261985 -0.000303134
352 1 0.250027 0.625093 0.749947 6.0694e-05 0.000214733 -0.000345288
353 1 0.312554 0.687602 0.812319 0.000149716 -0.000248464 -0.00042068
354 1 0.249985 0.625332 0.87464 0.000251377 -0.00041175 -0.000220288
355 1 0.312545 0.687721 0.937206 0.000775154 0.000634601 -0.000808359
356 1 0.249973 0.75001 0.999847 0.000583613 -0.000390184 -0.000130659
357 1 0.31259 0.81237 0.0623719 0.000937536 0.00222636 0.00140473
358 1 0.249992 0.749998 0.124946 0.000472233 -0.000609984 -3.91402e-05
359 1 0.312572 0.812526 0.18749 0.00123439 0.00043163 -0.00149016
360 1 0.250077 0.749979 0.249936 -0.000248866 -0.000357227 5.70938e-06
361 1 0.31266 0.812395 0.312535 -0.00146213 0.00958255 -0.00118797
362 1 0.250052 0.749966 0.374962 -0.000583608 -0.00155694 -0.000277102
363 1 0.312566 0.812368 0.437606 -0.000864292 -0.0024994 0.00167591
364 1 0.249995 0.749899 0.500035 0.000132553 0.000136612 -0.000263891
365 1 0.312528 0.812216 0.562722 4.2443e-05 -0.000123307 0.000231547
366 1 0.249981 0.749873 0.625064 0.000227607 -0.000240143 -7.61362e-05
367 1 0.312524 0.812296 0.687572 0.000442623 -0.00054197 -0.000490247
368 1 0.249987 0.749947 0.749915 0.000477097 -0.000421006 -0.0004204
369 1 0.312553 0.812357 0.812361 0.000458165 -0.000637336 -0.000391193
370 1 0.249982 0.750017 0.874774 0.000477955 -0.000489757 -0.000706969
371 1 0.312594 0.812316 0.937245 -0.000288274 -0.00111173 -0.00084753
372 1 0.25007 0.87456 0.999566 -0.00181895 -0.00333637 -0.00268694
373 1 0.31314 0.936644 0.0615852 0.00589055 0.0335437 0.0463157
374 1 0.250177 0.875068 0.124773 0.0146381 -0.0565709 -0.0181551
375 1 0.312722 0.937479 0.187514 0.00722138 -0.000554162 -0.0117884
376 1 0.250163 0.875198 0.249961 -0.000698623 -0.0795927 -0.000382665
377 1 0.313097 0.935976 0.312867 0.00894076 0.147698 0.00186544
378 1 0.250005 0.875054 0.375211 -0.0155554 -0.0510014 0.0175384
379 1 0.312709 0.936807 0.438393 0.0107592 -0.0175453 -0.0132479
380 1 0.249962 0.874577 0.500363 0.00311575 -0.00249623 0.00165876
381 1 0.312608 0.936859 0.563083 -0.00270372 -0.00312627 0.00254193
382 1 0.249931 0.874669 0.625225 0.000284537 -0.0001093 -0.000738697
383 1 0.312553 0.937148 0.687721 3.66871e-05 -0.000885106 -0.000366164
384 1 0.249977 0.874756 0.749971 0.000348228 -0.000730675 -0.000432802
385 1 0.312599 0.9372 0.812331 -3.42473e-05 -0.00074115 -0.000553018
386 1 0.250011 0.87471 0.874727 0.000701181 -0.00100845 -0.000422761
387 1 0.312725 0.93701 0.937049 0.00247608 -0.0039222 -0.00336546
388 1 0.375621 0.999252 0.999403 0.000338289 0.000153116 -0.0117339
389 1 0.43804 0.0617842 0.0619133 -0.0259166 0.0589864 0.0862945
390 1 0.374459 0.00030344 0.125675 0.00450186 -0.0199232 -0.0140033
391 1 0.438991 0.061121 0.186263 0.0160122 0.035276 0.00266821
392 1 0.377054 0.998493 0.248987 -0.0470764 0.0125539 0.0182365
393 1 0.438854 0.0613055 0.315071 0.0773526 -0.0789387 -0.00233725
394 1 0.377154 0.997486 0.377007 -0.0153924 0.0515278 -0.0135559
395 1 0.437073 0.0629249 0.437076 0.0714373 -0.0714376 0.0714381
396 1 0.376011 0.998555 0.501409 0.00748511 0.0663671 -0.0689689
397 1 0.438552 0.0614152 0.563561 -0.00635331 0.00640081 0.0151124
398 1 0.375313 0.999389 0.625578 -0.000751403 0.00033404 -0.00153821
399 1 0.437765 0.0622235 0.687795 0.00108149 -0.00110262 0.00302576
400 1 0.37512 0.99977 0.750049 0.000867118 -0.000557088 0.000301135
401 1 0.43764 0.0623628 0.812449 0.000309308 -0.000531527 -0.00152593
402 1 0.375305 0.999602 0.874651 -0.000580863 0.00125703 0.00107949
403 1 0.437792 0.0622262 0.937214 0.000498879 3.95545e-05 -0.00416314
404 1 0.375326 0.124685 0.999548 -0.0105409 -0.000533819 -0.0099799
405 1 0.437855 0.186577 0.0619577 0.00159804 0.00113714 0.039663
406 1 0.375231 0.123965 0.125127 0.105405 0.0453523 -0.0215438
407 1 0.433647 0.191937 0.191962 0.177687 -0.130553 -0.21114
408 1 0.382544 0.118848 0.250299 -0.059647 0.0256716 -0.0308488
409 1 0.448006 0.184659 0.315929 -0.0288199 -0.0552083 0.037407
410 1 0.370511 0.129487 0.370514 0.24931 -0.249311 0.249313
411 1 0.438693 0.18493 0.438856 0.0789387 0.00233768 0.0773531
412 1 0.377005 0.122844 0.502515 -0.0135565 0.0153926 -0.0515282
413 1 0.438391 0.187289 0.563194 -0.0132482 -0.0107592 0.017545
414 1 0.375401 0.124528 0.625322 0.0155302 -0.0152584 0.0302298
415 1 0.437603 0.187432 0.687634 0.0016759 0.000864238 0.00249938
416 1 0.375059 0.124883 0.750055 0.000137563 -6.51326e-05 0.00112922
417 1 0.437536 0.187458 0.812499 0.000514398 -0.000184639 -7.34559e-05
418 1 0.375085 0.124832 0.874852 0.000963165 -0.000469396 -0.0025491
419 1 0.437921 0.187158 0.937125 0.00303699 0.00163839 -0.00543756
420 1 0.376136 0.249743 0.998792 -0.0695544 -0.0107817 0.0653796
421 1 0.437472 0.313643 0.0627125 0.0937091 0.0255544 -0.078993
422 1 0.377112 0.250225 0.12064 -0.207299 0.0709482 0.103774
423 1 0.448016 0.315141 0.184773 -0.0410268 0.0854745 -0.0559338
424 1 0.433884 0.30923 0.310395 0.179655 0.1558 -0.011642
425 1 0.38115 0.249702 0.382547 -0.0256709 0.0308491 -0.0596466
426 1 0.438877 0.313738 0.438994 -0.0352749 -0.0026682 0.016012
427 1 0.376447 0.250888 0.501457 -0.0283659 -0.0173209 -0.0227136
428 1 0.438323 0.312997 0.563185 -0.0531105 0.00878306 -0.0353166
429 1 0.375209 0.249993 0.624948 0.0175381 0.0155555 0.0510013
430 1 0.437525 0.312515 0.687614 -0.00236314 0.000624486 -0.00111333
431 1 0.374959 0.249947 0.750035 -0.000277116 0.000583546 0.0015569
432 1 0.437458 0.31249 0.812554 -0.000393368 0.00096975 -0.000520402
433 1 0.375005 0.249969 0.87503 0.00133598 -0.0029043 -0.00342674
434 1 0.437708 0.312737 0.937434 0.0113723 0.00254218 -0.0235291
435 1 0.375013 0.374962 7.87799e-05 0.0249075 0.0111849 -0.0240227
436 1 0.437165 0.437218 0.0625699 -0.0075674 0.0204212 -0.0034092
437 1 0.372764 0.372542 0.128858 0.0236657 0.0504622 -0.123071
438 1 0.439764 0.439076 0.185686 -0.0350918 0.0273154 0.00907597
439 1 0.379777 0.38275 0.250108 -0.0774813 0.1026 0.0476348
440 1 0.438817 0.438926 0.313967 0.0352661 0.00344617 -0.00128631
441 1 0.376034 0.374874 0.375234 -0.0453525 0.0215427 0.105404
442 1 0.438214 0.438088 0.438043 -0.0589858 -0.0862944 -0.0259168
443 1 0.373823 0.373955 0.499034 0.0515756 0.0337852 0.0558976
444 1 0.437194 0.437212 0.562366 0.00112267 -0.000444709 1.77261e-05
445 1 0.374851 0.37478 0.624829 0.005643 0.00597767 0.0263686
446 1 0.437386 0.437379 0.687522 0.00102795 0.000879381 0.00472881