ITEM: TIMESTEP
0
ITEM: NUMBER OF ATOMS
1026
ITEM: BOX BOUNDS pp pp pp
0.0000000000000000e+00 2.2857118000000000e+01
0.0000000000000000e+00 2.2857118000000000e+01
0.0000000000000000e+00 2.2857118000000000e+01
ITEM: ATOMS id type xs ys zs fx fy fz
1 1 0.248529 0.251467 0.120338 0.0149284 -0.0149072 0.276376
2 1 0.300552 0.319527 0.180475 -0.189579 -0.199707 0.199704
3 1 0.224023 0.124406 0.22403 0.143907 -0.0851711 0.143917
4 1 0.180469 0.199444 0.180475 0.199734 0.189499 0.199729
5 1 0.375589 0.275974 0.224029 0.0852468 -0.143924 0.143929
6 1 0.248529 0.379664 0.248536 0.0149414 -0.276354 0.0148929
7 1 0.290364 0.139795 0.290367 -0.198542 -0.0097962 -0.198426
8 1 0.360202 0.209633 0.290368 0.00978648 0.198532 -0.198463
9 1 0.120332 0.251467 0.248536 0.276339 -0.0149331 0.0149054
10 1 0.180469 0.319527 0.30056 0.199726 -0.199723 -0.189454
11 1 0.290364 0.209633 0.360205 -0.198502 0.198454 0.00981816
12 1 0.224025 0.275972 0.375597 0.143903 -0.143907 0.0851799
13 1 0.999333 0.99987 0.999339 0.00415982 -0.00161371 0.00415991
14 1 0.0615638 0.062637 0.0615699 0.0408083 0.00222257 0.0408086
15 1 0.999493 0.999442 0.124368 -0.00819087 -0.00902029 -0.0155335
16 1 0.0620627 0.0615474 0.186372 -0.0243981 -0.0396048 -0.0196339
17 1 0.000129986 3.84361e-05 0.249967 -0.0310873 -0.0152959 0.012788
18 1 0.0631917 0.0629319 0.312455 -0.045839 -0.010408 0.0281322
19 1 0.000273615 0.000261206 0.37489 -0.00740761 0.00275885 -0.000506746
20 1 0.0630413 0.0627827 0.43722 0.0192643 0.00641864 -0.00642037
21 1 0.00018623 0.000155483 0.499847 -0.000575378 -0.00220178 0.00220158
22 1 0.0625212 0.0627191 0.562517 -0.00306054 -0.00407649 0.00675763
23 1 0.999957 8.33078e-05 0.624997 -0.00131247 0.000343778 0.00251223
24 1 0.0624461 0.0625417 0.687579 -0.000122116 -0.000696525 0.0030914
25 1 0.999905 1.86293e-05 0.749955 -0.000368915 -0.000453085 0.00144887
26 1 0.062406 0.0625065 0.812423 -0.000285129 -0.000529937 0.000219271
27 1 0.999746 0.999936 0.874725 -0.000476153 -8.8057e-06 -0.000704677
28 1 0.0621352 0.0623656 0.937136 -0.00113843 0.00238428 -0.00614297
29 1 0.99914 0.124877 0.999146 0.00714718 -0.00143178 0.00714729
30 1 0.0611952 0.187177 0.0612013 0.0423998 -0.0060437 0.0424003
31 1 0.999593 0.12478 0.124413 -0.0189755 0.00259474 -0.00262449
32 1 0.0613049 0.188013 0.185636 -0.0417468 0.0462185 -0.0281016
33 1 0.999989 0.125078 0.249484 0.0201176 0.000722374 0.00283783
34 1 0.0628954 0.187753 0.31225 -0.132325 -0.0105213 0.01052
35 1 0.000504674 0.125265 0.374738 -0.00258842 -0.00188217 0.00188231
36 1 0.0631918 0.187547 0.43707 -0.0458401 -0.0281321 0.0104083
37 1 0.000273627 0.125113 0.499741 -0.00740733 0.000506609 -0.00275819
38 1 0.0616792 0.187039 0.563309 0.0342967 0.00468234 -0.0353682
39 1 0.999685 0.124786 0.62528 0.00323186 0.00165365 -0.00325378
40 1 0.0623421 0.18747 0.687636 0.00177513 -0.00182184 -0.00122668
41 1 0.999857 0.124965 0.749998 0.000357343 -0.00126552 0.000129261
42 1 0.0623293 0.187537 0.812385 0.000149363 -0.000678596 -0.000831034
43 1 0.999684 0.12494 0.874674 0.000505872 9.59197e-05 0.000155574
44 1 0.0619522 0.187467 0.937001 -0.00176523 -0.0013259 -0.00903719
45 1 0.998963 0.250164 0.998969 0.00877236 -0.000335241 0.00877224
46 1 0.0599653 0.314592 0.0599715 0.0259115 -0.0231388 0.0259114
47 1 0.998894 0.25051 0.123704 -0.00609699 0.0137706 -0.0181826
48 1 0.0596837 0.314487 0.185516 0.065949 -0.04564 0.0456243
49 1 0.999718 0.25048 0.249523 -0.0179393 -0.000383617 0.000387811
50 1 0.0613048 0.314367 0.311989 -0.0417494 0.0280969 -0.0462242
51 1 0.999989 0.250519 0.374924 0.0201148 -0.00283912 -0.000723154
52 1 0.0620626 0.313631 0.438455 -0.024397 0.0196336 0.0396104
53 1 0.000129972 0.250036 0.499964 -0.0310877 -0.0127877 0.0152951
54 1 0.0610799 0.312624 0.563946 0.0668457 0.00679192 -0.0735078
55 1 0.999427 0.249837 0.62547 -0.0018184 0.00405791 0.00290988
56 1 0.0621657 0.312624 0.687671 -0.00372885 -0.00287934 0.00265873
57 1 0.999747 0.250018 0.749979 -0.000509424 -0.000801582 0.000649467
58 1 0.0621797 0.31269 0.812278 -0.000902948 -0.000215605 -0.00070351
59 1 0.999551 0.250074 0.874578 -0.000801537 5.39082e-06 -0.00176707
60 1 0.0615979 0.312973 0.936666 -0.00653635 0.0069416 -0.00951689
61 1 0.998503 0.376224 0.998509 0.00989472 -0.00821611 0.00989501
62 1 0.061192 0.438804 0.0611981 -0.0155081 0.0155077 -0.015507
63 1 0.99827 0.376401 0.123602 0.00387084 -0.00670723 0.00670523
64 1 0.0599655 0.440031 0.18541 0.0259104 -0.0259105 0.0231374
65 1 0.998894 0.376298 0.249493 -0.00610123 0.0181799 -0.0137725
66 1 0.0611952 0.438801 0.312826 0.0423962 -0.042396 0.00604535
67 1 0.999593 0.375589 0.375223 -0.0189776 0.00262458 -0.00259739
68 1 0.0615636 0.438433 0.437366 0.0408118 -0.0408118 -0.00222007
69 1 0.999493 0.375635 0.50056 -0.00819015 0.0155338 0.00902211
70 1 0.0606541 0.439342 0.564266 0.0196595 -0.0196594 -0.0197481
71 1 0.999163 0.375379 0.625676 0.00537128 -0.00243814 -0.00583702
72 1 0.0619978 0.437999 0.687749 -0.00654542 0.00654564 0.0118546
73 1 0.999612 0.375226 0.749946 -0.00173995 0.000226024 0.00124529
74 1 0.0620931 0.437903 0.812189 -0.00119483 0.00119485 -0.000915153
75 1 0.999358 0.375403 0.874395 -0.00175656 0.00157129 -0.00179562
76 1 0.0615532 0.438443 0.936396 0.00272023 -0.00272003 7.04947e-05
77 1 0.999043 0.500954 0.999049 -0.00308818 0.00308794 -0.00308759
78 1 0.0615532 0.563607 0.0615593 0.00272002 -7.03371e-05 0.00271942
79 1 0.998503 0.501493 0.123779 0.00989307 -0.00989311 0.008214
80 1 0.0615979 0.563336 0.187029 -0.00653575 0.00951563 -0.00694192
81 1 0.998963 0.501033 0.249838 0.00877034 -0.00877021 0.000336652
82 1 0.0619521 0.563002 0.312535 -0.00176422 0.00903402 0.00132537
83 1 0.99914 0.500856 0.375126 0.00714481 -0.00714486 0.00143151
84 1 0.0621351 0.562867 0.437637 -0.00113802 0.00614114 -0.00238482
85 1 0.999332 0.500664 0.500132 0.00416002 -0.00416008 0.00161181
86 1 0.0620711 0.562912 0.56277 -0.00734171 0.0107722 0.00468765
87 1 0.999023 0.500974 0.625746 0.00944304 -0.00944298 -0.010094
88 1 0.0621373 0.563055 0.687712 0.00227901 -0.00026334 -0.000798167
89 1 0.999534 0.500462 0.749944 -0.00156572 0.00156594 0.00103474
90 1 0.0621377 0.563003 0.812152 -0.000415532 0.000943186 -0.000263562
91 1 0.99934 0.500657 0.874322 0.000750132 -0.000750157 -0.000486593
92 1 0.0617381 0.563409 0.936593 0.00280121 -0.00322669 0.00322675
93 1 0.99934 0.62568 0.999346 0.000749946 0.00048733 0.000750105
94 1 0.0620931 0.687814 0.0620991 -0.0011951 0.000915049 -0.00119481
95 1 0.999358 0.625607 0.124599 -0.00175672 0.00179562 -0.00157138
96 1 0.0621797 0.687724 0.187312 -0.000902709 0.000703212 0.000215805
97 1 0.999551 0.625424 0.249928 -0.000801421 0.00176659 -5.65e-06
98 1 0.0623292 0.687618 0.312465 0.000149143 0.000830574 0.000678782
99 1 0.999684 0.625328 0.375063 0.000506305 -0.000155378 -9.59761e-05
100 1 0.0624059 0.68758 0.437496 -0.000284923 -0.000219866 0.000529481
101 1 0.999746 0.625278 0.500066 -0.000475578 0.000704008 8.38373e-06
102 1 0.0623392 0.687587 0.562538 -0.000467636 0.000351632 0.000108476
103 1 0.999668 0.625338 0.625075 -0.00157724 0.00145528 0.000296174
104 1 0.0623132 0.687689 0.687448 0.00010225 0.000239083 0.00019026
105 1 0.999629 0.625444 0.749873 0.00119656 0.000333613 -0.000171055
106 1 0.0622501 0.687805 0.812197 0.000709721 0.000176863 -0.000177132
107 1 0.999472 0.625564 0.874438 0.00110098 -0.00100514 0.0010055
108 1 0.0621378 0.68785 0.937 -0.000415743 0.000263869 -0.000943009
109 1 0.999534 0.750058 0.99954 -0.00156602 -0.00103491 -0.00156599
110 1 0.0619978 0.812253 0.0620038 -0.0065459 -0.011854 -0.00654566
111 1 0.999612 0.750056 0.124777 -0.00173988 -0.00124554 -0.000225637
112 1 0.0621657 0.812331 0.187379 -0.00372864 -0.00265838 0.00287966
113 1 0.999747 0.750023 0.249984 -0.000509372 -0.000649645 0.000801387
114 1 0.0623421 0.812366 0.312533 0.00177543 0.0012274 0.001822
115 1 0.999857 0.750005 0.375038 0.000357666 -0.00013003 0.00126527
116 1 0.062446 0.812423 0.437461 -0.000121966 -0.00309142 0.000696215
117 1 0.999905 0.750048 0.499984 -0.000368692 -0.00144914 0.000452447
118 1 0.062254 0.812337 0.562628 0.000466813 0.00151901 -0.00155966
119 1 0.999798 0.750066 0.624999 0.000144104 0.00048271 -0.000565321
120 1 0.0623138 0.812483 0.68752 0.000313798 -5.60519e-05 5.57271e-05
121 1 0.999758 0.750174 0.749829 0.000390441 0.000101038 -0.000101748
122 1 0.0623132 0.812554 0.812313 0.000102102 -0.00019076 -0.000239144
123 1 0.999629 0.750129 0.874558 0.00119628 0.000171078 -0.000333599
124 1 0.0621374 0.81229 0.936948 0.002279 0.000798056 0.000263591
125 1 0.999023 0.874257 0.999029 0.00944462 0.0100947 0.00944476
126 1 0.0606542 0.935736 0.0606602 0.0196543 0.0197421 0.0196547
127 1 0.999163 0.874327 0.124624 0.00537127 0.00583734 0.00243716
128 1 0.0610799 0.936056 0.187378 0.0668477 0.0735108 -0.00679022
129 1 0.999427 0.874533 0.250165 -0.00181756 -0.00290922 -0.00405749
130 1 0.0616791 0.936693 0.312964 0.0342985 0.0353704 -0.00468275
131 1 0.999685 0.874722 0.375217 0.00323251 0.00325466 -0.00165421
132 1 0.0625211 0.937485 0.437283 -0.00306028 -0.00675749 0.00407743
133 1 0.999957 0.875005 0.499919 -0.00131229 -0.00251254 -0.000344044
134 1 0.0620869 0.937191 0.562811 8.15733e-05 0.00241591 -0.00241591
135 1 0.99979 0.874935 0.625068 -8.75153e-05 0.000767524 -0.000767688
136 1 0.0622541 0.937375 0.687666 0.000466335 0.00155902 -0.00151922
137 1 0.999799 0.875004 0.749936 0.000143987 0.000564847 -0.000483017
138 1 0.0623393 0.937464 0.812415 -0.000468082 -0.000108744 -0.000352298
139 1 0.999668 0.874928 0.874664 -0.00157785 -0.000297024 -0.00145553
140 1 0.0620712 0.937232 0.937091 -0.00734204 -0.00468789 -0.0107716
141 1 0.124362 0.999442 0.999499 -0.0155336 -0.0090198 -0.00819103
142 1 0.186366 0.0615474 0.0620687 -0.0196316 -0.0396031 -0.0243951
143 1 0.121146 0.995952 0.121152 0.0227201 -0.0115529 0.0227219
144 1 0.180423 0.0502757 0.180429 0.0932868 -0.123519 0.0932818
145 1 0.123157 0.998495 0.251105 0.0934634 0.0361966 -0.0587436
146 1 0.19057 0.0645497 0.311283 -0.141238 -0.0679927 -0.198561
147 1 0.125386 9.14802e-05 0.374308 0.0219021 0.00999116 -0.0141243
148 1 0.185677 0.0603664 0.439636 0.00130722 -0.0110218 0.011018
149 1 0.124129 0.99918 0.500823 -0.00161099 0.0083332 -0.00833285
150 1 0.186741 0.0614891 0.56336 -0.00451772 0.0174464 0.00462491
151 1 0.124562 0.999623 0.625457 0.000411626 0.00512125 -0.00371223
152 1 0.187372 0.0623708 0.687699 -0.00231152 0.000534484 0.00188225
153 1 0.124892 0.999957 0.750105 -0.000942465 0.000143586 -0.000214257
154 1 0.187436 0.0625341 0.812583 0.000130467 0.000257294 -0.000426126
155 1 0.124843 0.999922 0.874908 0.000383897 -0.000225055 -0.000502781
156 1 0.187239 0.062396 0.937516 0.000336682 -0.00273284 -0.00781251
157 1 0.124407 0.12478 0.999599 -0.0026218 0.00259608 -0.0189724
158 1 0.185629 0.188013 0.0613109 -0.0280989 0.046221 -0.0417514
159 1 0.125371 0.125027 0.125377 0.0493914 -0.0244918 0.0493894
160 1 0.122131 0.125183 0.248039 0.0352942 0.0075395 0.118693
161 1 0.187622 0.188685 0.311318 -0.158124 0.0842123 -0.0842103
162 1 0.126919 0.125665 0.374338 -0.0687622 -0.0651517 0.0651513
163 1 0.19057 0.188719 0.435453 -0.141221 0.198571 0.0679762
164 1 0.125386 0.125694 0.499911 0.0219015 0.0141264 -0.00998957
165 1 0.187603 0.187724 0.562588 0.00600704 -0.00060302 -0.0119666
166 1 0.125014 0.125062 0.625093 -0.00277752 -0.00264104 0.0147835
167 1 0.187497 0.187606 0.687467 -0.00180842 -0.00102361 0.00191922
168 1 0.124979 0.12506 0.750022 -0.000112022 1.17389e-05 0.000661466
169 1 0.187389 0.187624 0.812513 0.000407411 -0.000444561 0.000230958
170 1 0.124841 0.125028 0.874917 -0.000231102 -0.000957471 -0.00115231
171 1 0.187083 0.187724 0.937442 -0.00312065 -0.00481327 -0.0153893
172 1 0.123698 0.25051 0.9989 -0.0181796 0.013772 -0.00609573
173 1 0.185509 0.314487 0.0596895 0.0456477 -0.0456361 0.0659609
174 1 0.120409 0.2538 0.120415 0.0245407 0.00283821 0.0245601
175 1 0.185308 0.314688 0.185315 0.00492764 -0.00489693 0.0048554
176 1 0.122131 0.251963 0.374819 0.0353069 -0.11868 -0.00754005
177 1 0.180422 0.319574 0.449726 0.0933378 -0.093335 0.123453
178 1 0.123157 0.248898 0.501507 0.0934583 0.0587355 -0.0361961
179 1 0.186745 0.313252 0.564072 -0.021265 0.0212653 -0.176506
180 1 0.124657 0.25003 0.625074 -0.0138139 -0.0195411 0.0501131
181 1 0.187292 0.312705 0.687592 0.00204997 -0.00204991 -0.00688164
182 1 0.124852 0.250095 0.74995 0.000259642 -0.0010149 0.00261698
183 1 0.1873 0.312697 0.812399 0.00016851 -0.000168377 -0.000609236
184 1 0.124656 0.250208 0.874767 -0.00123083 -0.00168597 -0.00231347
185 1 0.187007 0.31299 0.937076 -0.00506286 0.00506257 -0.0151437
186 1 0.123596 0.376401 0.998276 0.0067095 -0.00670805 0.00387318
187 1 0.185404 0.440031 0.0599714 0.0231392 -0.0259118 0.0259115
188 1 0.123355 0.376641 0.123362 -0.0615448 0.0615504 -0.0615585
189 1 0.185509 0.440313 0.185516 0.0456505 -0.0659546 0.0456223
190 1 0.120409 0.379587 0.246203 0.0245289 -0.0245369 -0.00283998
191 1 0.185629 0.438692 0.311989 -0.028096 0.0417513 -0.0462253
192 1 0.12537 0.374626 0.374976 0.049383 -0.0493818 0.0244942
193 1 0.186366 0.437934 0.438455 -0.0196326 0.0243962 0.0396096
194 1 0.121146 0.37885 0.50405 0.0226984 -0.0226986 0.0115667
195 1 0.187372 0.438916 0.563946 -0.00679169 -0.0668454 -0.073508
196 1 0.124318 0.375679 0.625589 -0.0124532 0.0124533 0.00187331
197 1 0.187373 0.437831 0.687671 0.00287946 0.00372874 0.00265866
198 1 0.124727 0.375269 0.749953 -0.000447791 0.00044796 0.00197023
199 1 0.187306 0.437817 0.812278 0.000215835 0.000903211 -0.000703616
200 1 0.124566 0.37543 0.87456 -0.00241822 0.00241815 -0.0051083
201 1 0.187023 0.438398 0.936666 -0.00694174 0.00653756 -0.00951835
202 1 0.123772 0.501493 0.998509 0.00821714 -0.00989574 0.00989624
203 1 0.187023 0.563336 0.061604 -0.00694242 0.00951909 -0.00653874
204 1 0.123596 0.501727 0.123602 0.00670894 -0.0038718 0.00670573
205 1 0.187007 0.562927 0.187013 -0.00506235 0.0151421 -0.00506195
206 1 0.123698 0.501102 0.249493 -0.0181788 0.00610079 -0.0137731
207 1 0.187083 0.562561 0.312278 -0.00311951 0.0153854 0.00481218
208 1 0.124407 0.500403 0.375223 -0.00262329 0.0189761 -0.00259813
209 1 0.187239 0.562486 0.437606 0.000337981 0.0078101 0.00273183
210 1 0.124362 0.500504 0.50056 -0.0155335 0.0081904 0.00902186
211 1 0.187445 0.56266 0.562599 0.00234068 0.00417774 0.00318011
212 1 0.124618 0.500834 0.625676 0.00243834 -0.00537106 -0.005837
213 1 0.187459 0.562891 0.687663 -0.000376616 0.000312294 4.12494e-05
214 1 0.124771 0.500385 0.749946 -0.000225964 0.00174023 0.00124531
215 1 0.187388 0.562877 0.812236 3.23948e-05 0.000661764 -0.000571739
216 1 0.124593 0.500638 0.874395 -0.00157127 0.001757 -0.00179578
217 1 0.187232 0.563219 0.936784 0.00152444 -0.00101084 0.0010111
218 1 0.124593 0.625607 0.999364 -0.00157141 0.00179631 -0.00175734
219 1 0.187306 0.687724 0.0621858 0.000216033 0.000704108 -0.000902886
220 1 0.124566 0.625442 0.124572 -0.00241825 0.00510727 -0.00241777
221 1 0.1873 0.687603 0.187306 0.000168666 0.000609387 0.000168414
222 1 0.124656 0.625235 0.249794 -0.00123076 0.00231316 0.00168555
223 1 0.187389 0.687489 0.312378 0.000407496 -0.000231085 0.000444615
224 1 0.12484 0.625086 0.374974 -0.000230754 0.00115221 0.000957134
225 1 0.187436 0.68742 0.437468 0.000130633 0.00042603 -0.000257638
226 1 0.124843 0.625094 0.500081 0.00038409 0.000502661 0.000224561
227 1 0.187457 0.68745 0.5625 -0.000257646 0.000267418 0.000422874
228 1 0.124877 0.625193 0.625044 -0.000345889 0.00148375 0.00122746
229 1 0.187448 0.687589 0.68747 0.000108955 1.24738e-06 0.000174964
230 1 0.124854 0.625341 0.749904 9.61853e-05 0.00046493 -9.57518e-06
231 1 0.187435 0.687731 0.812272 4.77385e-05 3.04914e-05 -3.04193e-05
232 1 0.124745 0.625479 0.874524 0.000960556 8.00979e-05 -8.00174e-05
233 1 0.187388 0.687767 0.937125 3.2354e-05 0.000572077 -0.000661843
234 1 0.124771 0.750056 0.999618 -0.000225844 -0.00124525 -0.00174004
235 1 0.187373 0.812331 0.0621717 0.00287934 -0.00265827 -0.0037285
236 1 0.124727 0.75005 0.124733 -0.000447815 -0.0019699 -0.000447964
237 1 0.187292 0.81241 0.187298 0.00204961 0.00688232 0.00204996
238 1 0.124852 0.750052 0.249908 0.000260049 -0.00261712 0.00101486
239 1 0.187498 0.812536 0.312396 -0.00180857 -0.00192001 0.00102421
240 1 0.124979 0.749981 0.374943 -0.000112096 -0.000661725 -1.22207e-05
241 1 0.187372 0.812304 0.437632 -0.00231175 -0.00188175 -0.000535355
242 1 0.124892 0.749897 0.500046 -0.000942592 0.000214079 -0.000143598
243 1 0.187326 0.812209 0.562732 0.00118755 -0.000720786 0.000524024
244 1 0.124866 0.749946 0.625049 0.000474603 -4.7858e-05 0.000305292
245 1 0.187394 0.812394 0.687608 8.20996e-05 5.53541e-06 -5.81069e-06
246 1 0.12488 0.750102 0.749901 0.000186843 -2.37064e-05 2.32313e-05
247 1 0.187448 0.812532 0.812414 0.000108726 -0.000175248 -1.25133e-06
248 1 0.124854 0.750098 0.874661 9.58505e-05 9.71503e-06 -0.000464782
249 1 0.187459 0.81234 0.937112 -0.000376785 -4.13036e-05 -0.000312013
250 1 0.124618 0.874327 0.999169 0.00243718 0.00583714 0.00537113
251 1 0.187372 0.936056 0.0610859 -0.00678943 0.0735114 0.0668478
252 1 0.124318 0.874413 0.124324 -0.0124528 -0.00187145 -0.0124523
253 1 0.186745 0.935931 0.186751 -0.0212666 0.176536 -0.0212661
254 1 0.124657 0.874928 0.249972 -0.0138133 -0.0501115 0.0195416
255 1 0.187603 0.937414 0.312278 0.0060051 0.0119634 0.000600338
256 1 0.125014 0.874909 0.374941 -0.00277685 -0.014784 0.00264208
257 1 0.186741 0.936642 0.438513 -0.00451949 -0.00462335 -0.017449
258 1 0.124562 0.874545 0.50038 0.000413308 0.00371402 -0.00512289
259 1 0.18717 0.936927 0.563075 -0.00279243 -0.00656789 0.00656794
260 1 0.124746 0.874758 0.625245 0.000598456 -0.000779894 0.000779428
261 1 0.187326 0.937271 0.687793 0.0011875 -0.000525027 0.000721062
262 1 0.124866 0.874953 0.750057 0.000474188 -0.000305742 4.76409e-05
263 1 0.187457 0.937503 0.812552 -0.000258184 -0.00042304 -0.000267747
264 1 0.124877 0.874958 0.874809 -0.000346067 -0.00122823 -0.001484
265 1 0.187445 0.937403 0.937343 0.00233991 -0.00318047 -0.00417924
266 1 0.249961 3.85025e-05 0.000136075 0.0127881 -0.015296 -0.0310863
267 1 0.312449 0.062932 0.0631979 0.0281315 -0.0104094 -0.045844
268 1 0.251099 0.998495 0.123163 -0.0587434 0.0361956 0.0934619
269 1 0.311278 0.0645497 0.190576 -0.198562 -0.0680199 -0.141245
270 1 0.248911 0.0010589 0.248917 -0.0152496 -0.218608 -0.0152452
271 1 0.315913 0.0492212 0.315919 0.0767505 -0.0994909 0.0767678
272 1 0.248929 0.997697 0.377357 0.0413962 0.0254885 -0.0518555
273 1 0.315197 0.0601557 0.439847 -0.0177813 -0.0590476 0.0590422
274 1 0.250096 0.998679 0.501324 -0.00839376 0.0451277 -0.0451237
275 1 0.312766 0.0611519 0.563749 0.0171386 0.0276916 -0.00846849
276 1 0.249838 0.999419 0.625623 0.00237387 -0.000918674 0.000212839
277 1 0.312536 0.0623441 0.687755 -0.000468274 -0.00385622 0.00395657
278 1 0.249959 0.99996 0.750182 -0.000473651 -0.000438949 0.000393049
279 1 0.312421 0.0626077 0.812676 -0.000133202 0.000457605 -0.000123704
280 1 0.24996 8.7627e-05 0.875124 2.38926e-05 -0.000409043 -0.00162614
281 1 0.312354 0.0626913 0.937823 0.000740815 -0.000847869 -0.00810981
282 1 0.249477 0.125078 0.999995 0.00284175 0.000722248 0.0201209
283 1 0.312243 0.187753 0.0629014 0.0105207 -0.0105196 -0.132321
284 1 0.248033 0.125183 0.122137 0.118704 0.00753939 0.0353013
285 1 0.311311 0.188685 0.187627 -0.0842239 0.0842203 -0.158086
286 1 0.250167 0.116484 0.383517 -0.0569307 0.0589765 -0.0589747
287 1 0.315912 0.184084 0.45078 0.076723 -0.0767304 0.0994097
288 1 0.248929 0.122645 0.502305 0.041381 0.0518363 -0.0254689
289 1 0.3126 0.187397 0.564291 0.018681 -0.0186823 -0.235474
290 1 0.249881 0.124613 0.62518 -0.0190983 -0.00874516 0.0331426
291 1 0.312476 0.187521 0.687602 -0.000598402 0.000598253 -0.00578564
292 1 0.249934 0.125036 0.750069 -0.000482031 0.000416881 0.00138546
293 1 0.312376 0.18762 0.812629 4.73009e-05 -4.71185e-05 0.000129343
294 1 0.249839 0.12514 0.875174 0.000349272 2.14207e-05 -0.000228801
295 1 0.312255 0.187741 0.93788 0.00317792 -0.0031782 -0.0211731
296 1 0.249516 0.25048 0.999724 0.000384854 -0.000387589 -0.017935
297 1 0.311983 0.314367 0.0613109 -0.0462179 0.028102 -0.0417482
298 1 0.251764 0.248233 0.25177 -0.234157 0.234151 -0.234155
299 1 0.311312 0.312375 0.311317 -0.0842186 0.158107 -0.0842137
300 1 0.311278 0.309426 0.435453 -0.198572 0.141224 0.0679863
301 1 0.24891 0.251086 0.498944 -0.0152482 0.0152463 0.218618
302 1 0.312272 0.312393 0.562588 0.000602601 -0.00600685 -0.0119652
303 1 0.249824 0.250172 0.624727 -0.00519321 0.00519313 0.0840383
304 1 0.31239 0.312499 0.687467 0.00102379 0.00180831 0.00191905
305 1 0.249894 0.250103 0.749978 -0.000304438 0.000304651 0.00180647
306 1 0.312372 0.312608 0.812513 0.000444623 -0.000407561 0.000230734
307 1 0.249798 0.250198 0.875045 0.000558533 -0.000558435 -0.00172297
308 1 0.312272 0.312913 0.937442 0.00481335 0.00312072 -0.0153899
309 1 0.249486 0.376298 0.9989 -0.013771 0.0181813 -0.0060931
310 1 0.31282 0.438801 0.0612014 0.00604265 -0.042403 0.0424035
311 1 0.246196 0.379588 0.120415 -0.00283017 -0.0245655 0.0245766
312 1 0.311983 0.438691 0.185636 -0.0462164 0.0417453 -0.0281037
313 1 0.312243 0.437101 0.31225 0.010522 0.132324 0.0105183
314 1 0.248033 0.377865 0.374819 0.118684 -0.0353096 -0.00753938
315 1 0.312449 0.436805 0.43707 0.0281319 0.0458424 0.0104081
316 1 0.251099 0.376839 0.501507 -0.0587352 -0.0934577 -0.0361959
317 1 0.312958 0.438317 0.563309 -0.00468263 -0.0342957 -0.0353672
318 1 0.249966 0.37534 0.625074 0.0195415 0.013814 0.0501135
319 1 0.312527 0.437654 0.687636 0.00182188 -0.00177522 -0.00122683
320 1 0.249902 0.375144 0.74995 0.00101486 -0.000259568 0.00261691
321 1 0.312459 0.437667 0.812385 0.000678754 -0.000149131 -0.000831165
322 1 0.249788 0.375341 0.874767 0.00168611 0.00123089 -0.0023131
323 1 0.312529 0.438044 0.937001 0.00132663 0.00176616 -0.00903908
324 1 0.249832 0.501033 0.998969 0.000334821 -0.00877345 0.00877366
325 1 0.312529 0.563001 0.0619583 0.00132735 0.00903905 -0.00176639
326 1 0.249486 0.501102 0.123704 -0.0137702 0.00609365 -0.0181832
327 1 0.312272 0.562561 0.187089 0.00481307 0.0153878 -0.00312036
328 1 0.249516 0.500278 0.249523 0.000382694 0.0179379 0.000388893
329 1 0.312255 0.562122 0.312261 0.00317738 0.0211696 0.00317748
330 1 0.249477 0.500007 0.374924 0.00284084 -0.020116 -0.000722932
331 1 0.312354 0.562179 0.437311 0.000740335 0.0081075 0.000846797
332 1 0.249961 0.499866 0.499964 0.0127882 0.0310876 0.0152952
333 1 0.312521 0.562499 0.562435 0.00174559 -0.000736811 -0.00167856
334 1 0.250159 0.50057 0.62547 -0.00405752 0.00181845 0.00290996
335 1 0.312616 0.56276 0.687626 -0.00213553 0.000193306 0.000312572
336 1 0.249978 0.500249 0.749979 0.00080161 0.000509541 0.000649539
337 1 0.31253 0.562769 0.812304 2.02116e-05 0.000196428 -0.000270466
338 1 0.249922 0.500445 0.874578 -5.06584e-06 0.000801746 -0.0017671
339 1 0.312506 0.563077 0.936925 0.000243986 2.27259e-05 -2.23195e-05
340 1 0.249922 0.625424 0.999557 -5.09395e-06 0.00176778 -0.000802235
341 1 0.312459 0.687618 0.0623353 0.0006788 0.00083156 0.000149191
342 1 0.249788 0.625235 0.124662 0.00168605 0.00231308 -0.00123063
343 1 0.312372 0.687489 0.187395 0.000444332 -0.000230585 0.000407445
344 1 0.249798 0.624958 0.249804 0.000558585 0.00172225 0.000558482
345 1 0.312376 0.687373 0.312382 4.72287e-05 -0.000128998 4.71171e-05
346 1 0.249839 0.624828 0.374862 0.000349281 0.000228509 -2.17138e-05
347 1 0.312421 0.687327 0.437395 -0.000133114 0.000123373 -0.000458006
348 1 0.24996 0.624878 0.499915 2.43556e-05 0.00162566 0.000408364
349 1 0.312485 0.68736 0.562468 -1.93625e-05 -5.01201e-05 -2.95613e-05
350 1 0.250017 0.625072 0.625 0.000442888 0.000225392 0.000156912
351 1 0.312529 0.687508 0.687491 0.000224871 -0.000185284 0.000165285
352 1 0.250018 0.625238 0.749936 -0.000535891 0.000237527 0.000128699
353 1 0.312548 0.687668 0.812335 -0.000349638 -2.08121e-05 2.10769e-05
354 1 0.24996 0.625378 0.874625 0.000417366 -4.37679e-05 4.41266e-05
355 1 0.31253 0.687698 0.937233 2.06278e-05 0.000270959 -0.000196492
356 1 0.249978 0.750023 0.999753 0.000801269 -0.000649151 -0.000509371
357 1 0.312527 0.812366 0.0623481 0.00182184 0.00122756 0.00177515
358 1 0.249902 0.750052 0.124858 0.00101431 -0.00261712 0.000259804
359 1 0.31239 0.812536 0.187503 0.00102406 -0.00191933 -0.00180844
360 1 0.249894 0.750024 0.2499 -0.000304991 -0.00180687 -0.000305016
361 1 0.312476 0.812401 0.312482 -0.000598927 0.00578701 -0.000598711
362 1 0.249934 0.749933 0.374966 -0.000482509 -0.00138563 -0.000417176
363 1 0.312536 0.812247 0.437658 -0.000469309 -0.00395783 0.00385662
364 1 0.249959 0.74982 0.500042 -0.000473728 -0.000393327 0.000438675
365 1 0.312506 0.8121 0.562814 0.000364931 -0.000615715 0.000838646
366 1 0.249958 0.749856 0.625086 0.000163503 -0.000262619 0.000192542
367 1 0.312504 0.812322 0.68768 -2.884e-05 -0.0002439 0.000243452
368 1 0.249987 0.750039 0.749964 0.000162392 -0.000118198 0.000118196
369 1 0.312529 0.812512 0.812494 0.000224827 -0.000165515 0.000185305
370 1 0.250018 0.750066 0.874764 -0.000535786 -0.000128903 -0.000237326
371 1 0.312616 0.812377 0.937242 -0.00213555 -0.000312154 -0.000192897
372 1 0.250159 0.874533 0.999433 -0.00405788 -0.00290972 -0.00181799
373 1 0.312958 0.936693 0.0616851 -0.00468472 0.0353696 0.0342976
374 1 0.249966 0.874928 0.124663 0.0195409 -0.0501123 -0.0138134
375 1 0.312272 0.937414 0.187609 0.000600351 0.01196 0.00600586
376 1 0.249824 0.875276 0.24983 -0.00519263 -0.0840451 -0.00519202
377 1 0.3126 0.935711 0.312606 0.0186824 0.235503 0.0186857
378 1 0.249881 0.874822 0.37539 -0.0190992 -0.0331416 0.00874463
379 1 0.312766 0.936253 0.438851 0.0171402 0.00847896 -0.0277033
380 1 0.249838 0.874379 0.500584 0.00237327 -0.000212316 0.000918219
381 1 0.31269 0.936642 0.563361 -0.00236322 -0.00293619 0.00293686
382 1 0.249898 0.874625 0.625377 -0.000684282 -0.000209851 0.000209731
383 1 0.312506 0.937189 0.687902 0.000365063 -0.000839175 0.000616145
384 1 0.249958 0.874916 0.750146 0.00016328 -0.000192378 0.000262007
385 1 0.312485 0.937535 0.812643 -1.92731e-05 2.94969e-05 5.01401e-05
386 1 0.250017 0.875002 0.874931 0.000442787 -0.000157554 -0.000225504
387 1 0.312521 0.937568 0.937504 0.00174545 0.00167818 0.000736052
388 1 0.374884 0.000261243 0.00027971 -0.00050773 0.00276151 -0.00740574
389 1 0.437214 0.0627828 0.0630476 -0.0064146 0.00641576 0.0192542
390 1 0.374302 9.13339e-05 0.125392 -0.0141257 0.00999603 0.021908
391 1 0.439631 0.0603658 0.185682 0.0109989 -0.0109956 0.0013281
392 1 0.377352 0.997697 0.248935 -0.051862 0.0255118 0.0413971
393 1 0.439841 0.0601551 0.315203 0.059033 -0.0590292 -0.0178097
394 1 0.377768 0.996857 0.377774 -0.0424209 -0.025512 -0.042417
395 1 0.43822 0.0617765 0.438226 0.00570481 -0.00570222 0.00569937
396 1 0.376268 0.998293 0.501709 0.00639782 0.0178691 -0.0178644
397 1 0.438947 0.0610496 0.564143 -0.0157324 0.0157321 0.00271392
398 1 0.375347 0.999258 0.625828 0.00111859 0.000908429 0.000308525
399 1 0.437722 0.0622739 0.687931 0.00306527 -0.00306508 0.00605997
400 1 0.375009 0.99994 0.750269 0.000271134 -0.000513484 0.000698283
401 1 0.437406 0.06259 0.812724 -1.16624e-05 1.17407e-05 -0.000144853
402 1 0.374907 0.000166037 0.875196 -0.000154585 0.00024015 -0.000331366
403 1 0.437289 0.0627069 0.937799 0.000486247 -0.000486441 -0.00320406
404 1 0.374732 0.125265 0.000510833 0.00188358 -0.00188389 -0.00258652
405 1 0.437064 0.187547 0.0631979 0.0104088 -0.0281311 -0.0458425
406 1 0.374332 0.125665 0.126925 0.065183 -0.0651824 -0.0688532
407 1 0.435447 0.188719 0.190576 0.0680299 0.198562 -0.141257
408 1 0.383513 0.116484 0.250172 -0.058971 0.0589684 -0.0569735
409 1 0.450776 0.184083 0.315919 0.0995491 -0.0767769 0.0767878
410 1 0.373692 0.126304 0.373698 0.0994027 -0.0994093 0.0994189
411 1 0.439841 0.184799 0.439847 0.0590441 0.0177918 0.0590348
412 1 0.377768 0.122229 0.503145 -0.0424095 0.0424084 0.0255163
413 1 0.438845 0.18723 0.563749 -0.0276902 -0.0171396 -0.00846791
414 1 0.375374 0.124622 0.625389 0.0172956 -0.0172963 0.0260392
415 1 0.437652 0.18746 0.687755 0.00385623 0.000468187 0.00395636
416 1 0.374969 0.125028 0.750151 0.00020962 -0.000209863 0.0022748
417 1 0.437389 0.187576 0.812676 -0.000457701 0.000133002 -0.000123627
418 1 0.374812 0.125184 0.875267 -0.000315712 0.000315629 5.97618e-05
419 1 0.437305 0.187643 0.937823 0.000848151 -0.000741286 -0.00811033
420 1 0.374918 0.250519 0.999995 -0.000721216 -0.00284109 0.0201236
421 1 0.438449 0.313631 0.0620688 0.0395992 0.0196305 -0.0243977
422 1 0.374813 0.251963 0.122137 -0.00753696 -0.118713 0.0352913
423 1 0.449721 0.319574 0.180429 0.123516 -0.0932883 0.0932852
424 1 0.435447 0.309426 0.311283 0.0680136 0.141251 -0.198561
425 1 0.383513 0.24983 0.383518 -0.0589767 0.0569479 -0.0589712
426 1 0.43963 0.31432 0.439636 0.0110152 -0.00131542 0.0110073
427 1 0.377351 0.251067 0.502305 -0.0518388 -0.0413821 -0.0254785
428 1 0.438507 0.313255 0.56336 -0.0174471 0.004519 0.00462646
429 1 0.375384 0.250116 0.62518 0.00874485 0.0190984 0.0331428
430 1 0.437626 0.312625 0.687699 -0.000534794 0.00231133 0.00188228
431 1 0.37496 0.250062 0.750069 -0.000416999 0.000482299 0.00138547
432 1 0.437462 0.31256 0.812583 -0.000257262 -0.000130425 -0.000426158
433 1 0.374856 0.250157 0.875174 -2.13765e-05 -0.000349697 -0.000229141
434 1 0.4376 0.312757 0.937516 0.00273328 -0.000336031 -0.00781364
435 1 0.375217 0.375589 0.999599 -0.00259377 0.00262131 -0.0189709
436 1 0.437359 0.438432 0.0615699 -0.00222324 -0.0408068 0.0408068
437 1 0.37497 0.374625 0.125377 0.024488 -0.0493981 0.0493965
438 1 0.438449 0.437934 0.186372 0.0396001 0.0243992 -0.0196325
439 1 0.374813 0.377866 0.248039 -0.007536 -0.0352877 0.118706
440 1 0.437064 0.436805 0.312455 0.0104077 0.0458399 0.0281311
441 1 0.374332 0.373077 0.374338 0.0651649 0.0687994 0.0651638
442 1 0.437214 0.436955 0.43722 -0.00641661 -0.0192604 -0.00641993
443 1 0.374302 0.37461 0.499911 -0.0141268 -0.0219034 -0.00999192
444 1 0.437277 0.437475 0.562517 0.00407772 0.00306063 0.00675766