ITEM: TIMESTEP
0
ITEM: NUMBER OF ATOMS
1026
ITEM: BOX BOUNDS pp pp pp
0.0000000000000000e+00 2.2857118000000000e+01
0.0000000000000000e+00 2.2857118000000000e+01
0.0000000000000000e+00 2.2857118000000000e+01
ITEM: ATOMS id type xs ys zs fx fy fz
1 1 0.220329 0.21691 0.13666 -0.0481862 0.0464639 0.164388
2 1 0.285056 0.289551 0.146912 -0.0125852 -0.264821 0.0228911
3 1 0.218431 0.142585 0.212195 -0.00694116 0.103322 0.174132
4 1 0.146909 0.214942 0.21045 0.0228934 0.0125896 0.264819
5 1 0.357414 0.287806 0.218434 -0.103322 -0.174131 -0.00694241
6 1 0.283088 0.363341 0.220332 -0.0464604 -0.164389 -0.04819
7 1 0.285364 0.142118 0.283804 -0.158046 0.12422 -0.0659202
8 1 0.35788 0.216197 0.285366 -0.12422 0.0659205 -0.158046
9 1 0.136657 0.27967 0.283091 0.164387 0.0481873 -0.0464637
10 1 0.210447 0.35309 0.285059 0.264822 -0.0228902 -0.0125872
11 1 0.283801 0.214635 0.357883 -0.0659203 0.158046 -0.12422
12 1 0.212192 0.281567 0.357417 0.174131 0.00694104 -0.103323
13 1 0.999932 4.5578e-05 6.51756e-05 0.0048536 0.000492767 -0.00309229
14 1 0.0633673 0.0634658 0.0633744 -0.0709712 -0.0826014 -0.0960975
15 1 0.999201 0.999092 0.12446 0.0766239 0.079196 -0.0119359
16 1 0.0624693 0.0622838 0.185202 -0.105083 -0.117867 -0.0173486
17 1 0.999952 0.999849 0.249779 0.00716158 0.0187238 -0.00565521
18 1 0.0616252 0.0617519 0.313634 0.0579859 0.0089978 -0.0241194
19 1 0.999802 0.999731 0.3753 -0.0272608 -0.0204192 0.00969551
20 1 0.0617156 0.0617873 0.438357 0.0986562 0.0604007 -0.0937054
21 1 0.999642 0.999555 0.500401 0.00839139 0.00255395 -0.00727422
22 1 0.0626239 0.0624684 0.562579 -0.00275197 -0.00012083 0.00013614
23 1 0.999932 0.999846 0.625071 -0.00101569 -0.00146002 0.0023982
24 1 0.0624026 0.0623667 0.687543 -0.000381059 -0.000597969 0.00280433
25 1 0.999784 0.999784 0.749853 -0.000867433 -0.00130872 0.000740449
26 1 0.0621729 0.0621887 0.812182 -0.00113112 -0.00179426 -0.0031715
27 1 0.999454 0.999504 0.874457 0.00301107 0.00180052 -0.00128839
28 1 0.0614767 0.0614718 0.936471 0.00794091 0.00701035 -0.00940281
29 1 0.998851 0.124198 0.998645 0.084767 0.000107733 0.0871774
30 1 0.0618073 0.185291 0.0611468 -0.0490414 0.00457832 -0.0835766
31 1 0.999168 0.124314 0.124062 0.0332114 -0.0219843 -0.0252186
32 1 0.0549874 0.186705 0.186416 -0.102788 -0.195141 -0.143894
33 1 0.999027 0.123708 0.250616 0.0324153 0.0531562 0.0298364
34 1 0.0654218 0.189973 0.30904 -0.120924 -0.0688037 0.00318223
35 1 0.000196708 0.125303 0.374432 -0.00204144 0.0281263 0.0116399
36 1 0.0606689 0.18552 0.439184 0.0195245 0.00467758 -0.0138939
37 1 0.999263 0.124195 0.500827 -0.0106351 0.000237414 0.00749208
38 1 0.0614888 0.186798 0.563308 0.0512586 -0.00915613 -0.0333561
39 1 0.999572 0.124592 0.625449 0.00583535 -0.00205149 -0.00586517
40 1 0.0623521 0.187399 0.687605 0.000595662 -0.00119305 -0.002043
41 1 0.999802 0.124904 0.749974 -0.000812814 -0.0017913 -0.00146511
42 1 0.0623368 0.187499 0.812383 -0.00193124 8.79179e-05 -0.00403543
43 1 0.999481 0.124766 0.874464 0.00120061 0.000646705 0.00085054
44 1 0.0616155 0.187432 0.936716 0.0235023 -0.0101368 -0.0132592
45 1 0.999463 0.249952 0.999181 0.0216235 -0.00691969 0.0369282
46 1 0.0611548 0.314111 0.060904 0.0635023 -0.0228829 0.0130382
47 1 0.999363 0.250718 0.123287 -0.00239631 0.032032 0.0681991
48 1 0.0664458 0.307781 0.190186 -0.230982 0.133597 -0.121683
49 1 0.998157 0.250473 0.250818 -0.0291794 -0.0224781 -0.0486339
50 1 0.0505942 0.314841 0.315702 0.0401132 0.11427 0.0479024
51 1 0.997763 0.248484 0.377172 0.0413926 0.030447 -0.0548486
52 1 0.0609585 0.314439 0.438808 -0.0666577 -0.00328071 0.0526518
53 1 0.999094 0.249941 0.500884 0.0249111 0.00125659 -0.0302428
54 1 0.0616883 0.312499 0.562995 0.00580858 0.00745783 0.0155045
55 1 0.999566 0.249943 0.625399 -0.00212242 0.00205058 0.00172613
56 1 0.0623789 0.312534 0.687542 -0.00156354 -0.00117292 0.000963062
57 1 0.999835 0.250039 0.749974 -0.000716088 -0.000457259 -7.57522e-05
58 1 0.0623386 0.312666 0.81236 0.00181825 0.000693694 0.000753939
59 1 0.999526 0.250112 0.874517 -0.000924176 -0.00295508 -0.000843728
60 1 0.0614122 0.313284 0.936555 0.0640361 0.00549936 0.0414719
61 1 0.999307 0.375645 0.999297 -0.0132348 0.000524546 -0.0105899
62 1 0.0612826 0.438716 0.0612855 0.113287 -0.113287 0.113287
63 1 0.000451164 0.374192 0.125487 -0.0280271 0.050897 -0.00863672
64 1 0.0609011 0.438844 0.18589 0.0130382 -0.0635029 0.0228834
65 1 0.998088 0.376349 0.248534 0.0339471 -0.0110103 0.0454355
66 1 0.0611439 0.438191 0.31471 -0.0835763 0.0490403 -0.00457855
67 1 0.997331 0.376883 0.377132 0.0355014 -0.0153498 -0.0146763
68 1 0.0633716 0.436631 0.436535 -0.096097 0.0709703 0.0826007
69 1 0.998676 0.37593 0.501269 0.0723529 0.00191438 -0.0688565
70 1 0.06179 0.438224 0.563131 0.000818335 -0.00317213 0.0180713
71 1 0.999601 0.375253 0.625371 -0.00127787 -0.00155053 0.00125362
72 1 0.0623449 0.437689 0.687647 -0.000527114 -9.73432e-05 0.000124238
73 1 0.999825 0.375147 0.749951 -0.000340787 0.00103731 0.000976292
74 1 0.0624227 0.437619 0.812405 0.000367826 -0.000164173 -0.00268141
75 1 0.99948 0.375451 0.874479 0.00729672 0.000149657 0.00849864
76 1 0.0624309 0.437576 0.937322 0.00383308 -0.00455716 0.00668377
77 1 0.999292 0.500707 0.999295 0.0132896 -0.0132896 0.0132896
78 1 0.0624221 0.562679 0.0624338 0.00455722 -0.00668382 0.00383316
79 1 0.999294 0.500691 0.124356 -0.0105896 0.0132346 -0.00052433
80 1 0.0616314 0.563091 0.187072 0.0333527 -0.0271579 -0.00589723
81 1 0.999178 0.500535 0.250049 0.0369286 -0.0216238 0.00691978
82 1 0.0619208 0.56264 0.31265 -0.0148115 0.0345493 0.000327349
83 1 0.998642 0.501147 0.375804 0.0871773 -0.0847669 -0.000107827
84 1 0.0621933 0.562687 0.437804 -0.0133946 0.0355338 0.0101917
85 1 6.23328e-05 0.500067 0.499956 -0.00309207 -0.00485382 -0.000492927
86 1 0.0621963 0.562895 0.562876 -0.00755719 -0.00343333 -0.00258352
87 1 0.999694 0.500401 0.625354 0.000582921 -0.00205899 0.00261219
88 1 0.0623933 0.562705 0.687606 -0.000296961 -0.000353266 0.000673541
89 1 0.999856 0.500187 0.750009 2.22998e-05 -0.000255074 -0.000680156
90 1 0.0623094 0.562726 0.812292 -0.000373218 -0.00188384 0.00235496
91 1 0.999796 0.500198 0.874775 0.0012929 -0.00158547 0.000661819
92 1 0.0621359 0.562916 0.937054 0.00311668 -0.00223786 0.00171603
93 1 0.9998 0.625226 0.999799 0.00158557 -0.000661893 0.00129294
94 1 0.0623792 0.687596 0.0624255 0.000164287 0.00268136 0.000367864
95 1 0.999626 0.625379 0.124711 0.00409049 -0.00399552 -0.00240053
96 1 0.0623942 0.687579 0.187462 0.00128964 -0.00190384 -0.000581748
97 1 0.9997 0.625247 0.250023 -0.00143065 0.00248492 0.000339976
98 1 0.0624688 0.687502 0.312511 -0.00101993 0.000925769 -0.000317952
99 1 0.999763 0.625232 0.375164 -0.00219782 -0.000155374 -0.00146183
100 1 0.0625088 0.687545 0.437494 -0.00194475 0.00146987 0.000787358
101 1 0.999909 0.625198 0.50012 -0.00343559 0.00556319 0.00226644
102 1 0.0624383 0.687561 0.562561 -0.00156333 0.00102594 0.000554713
103 1 0.999826 0.625207 0.625135 -0.00169063 -0.0011368 -0.000376692
104 1 0.0624004 0.687544 0.687478 0.000524455 6.82037e-05 0.00079666
105 1 0.999831 0.625171 0.749934 0.000424821 -0.000983643 0.000936678
106 1 0.0623195 0.687615 0.812305 0.000722343 -0.00128768 0.000861462
107 1 0.999748 0.625245 0.874724 0.00198365 -0.00219184 0.00182446
108 1 0.0622103 0.687743 0.937189 0.00084742 -0.00328194 0.00238818
109 1 0.999811 0.749992 0.999859 0.000255129 0.000680157 2.23197e-05
110 1 0.0623092 0.812354 0.0623477 9.7404e-05 -0.000124336 -0.000527071
111 1 0.999886 0.750038 0.124962 0.000605388 -0.000617176 -0.00101559
112 1 0.06249 0.812491 0.187507 -0.000520152 -0.000270296 -0.000617085
113 1 0.99996 0.750013 0.25002 0.000262979 0.000654097 -0.000753797
114 1 0.062516 0.812455 0.312538 0.00224734 0.00349053 -0.000687713
115 1 0.99998 0.749986 0.375033 0.000823886 0.00163726 0.000282273
116 1 0.0626041 0.812503 0.437393 -0.00126018 -0.00444694 0.0009102
117 1 3.34973e-05 0.75002 0.499963 -0.00153971 -0.000598053 0.000998716
118 1 0.0623735 0.812326 0.562564 0.000187276 0.00256625 -0.00205562
119 1 0.999894 0.749964 0.625002 2.46304e-05 0.000523225 -0.000253741
120 1 0.0623592 0.812356 0.687447 0.00017467 8.92501e-05 -4.69058e-05
121 1 0.99982 0.749984 0.749869 0.000795375 -0.000631325 0.000639223
122 1 0.0622778 0.812356 0.812287 0.00119146 -0.000893913 4.44456e-05
123 1 0.999736 0.750025 0.874757 0.00105455 -0.00116566 0.00127705
124 1 0.0622342 0.812338 0.937231 0.000255943 -0.001763 -0.000549383
125 1 0.999597 0.874648 0.999697 0.00205881 -0.00261243 0.000582763
126 1 0.0617745 0.93687 0.0617928 0.00317193 -0.0180715 0.000818143
127 1 0.999739 0.874722 0.124905 0.000418591 0.000711055 -9.70174e-05
128 1 0.0620723 0.937227 0.187445 0.00492371 -0.0217928 -0.00838432
129 1 0.999823 0.874794 0.250021 -0.00108582 -0.00305958 -0.00403582
130 1 0.0618197 0.936917 0.312954 0.0592538 0.054188 -6.94676e-05
131 1 0.999788 0.874723 0.375224 0.00665103 0.00908457 0.000504269
132 1 0.0628064 0.937663 0.437192 -0.00027629 0.00135523 0.000501457
133 1 7.45702e-05 0.874971 0.499909 -0.00112719 -0.00159064 0.00126404
134 1 0.0623456 0.937249 0.562636 -0.000765839 -0.00280144 0.00425163
135 1 0.999892 0.874837 0.625002 -4.90278e-05 -0.000707183 0.00107399
136 1 0.0622729 0.937206 0.687572 0.00110891 0.00133163 -0.00232262
137 1 0.999755 0.874766 0.749857 0.000887729 -4.52574e-05 -0.000125191
138 1 0.062188 0.937122 0.812186 0.000924255 -0.000492001 -0.00128585
139 1 0.999584 0.874684 0.874662 0.000579133 0.00222541 0.0031627
140 1 0.0618421 0.93685 0.936862 -0.00204618 0.00778868 0.0087479
141 1 0.124068 0.998733 0.998679 -0.0019144 0.0688567 0.0723533
142 1 0.18556 0.0611931 0.0609613 0.00328033 -0.0526523 -0.0666578
143 1 0.123639 0.998211 0.123293 0.0167859 0.0491657 0.00471731
144 1 0.185691 0.053065 0.18481 -0.0907144 0.0288589 -0.0572771
145 1 0.12397 0.999163 0.25098 0.0287719 0.00213931 -0.00500034
146 1 0.192106 0.0671076 0.307765 -0.176466 -0.270055 0.164007
147 1 0.126155 0.00101411 0.373782 -0.0486378 -0.0596461 0.0595996
148 1 0.18629 0.0612851 0.438601 0.000175624 0.0047127 -0.045097
149 1 0.124614 0.999569 0.500338 -0.00598604 -0.0199464 0.0212384
150 1 0.186973 0.061436 0.563312 -0.000996685 0.0512329 -0.0425951
151 1 0.124677 0.999531 0.62538 0.000181601 0.00554686 -0.00667321
152 1 0.187397 0.062278 0.687614 0.00051662 0.00136123 -0.00268718
153 1 0.124849 0.99974 0.749938 -0.000337038 -0.00105992 -0.00177826
154 1 0.187417 0.062216 0.812327 0.00211849 -0.00234955 -0.00394988
155 1 0.124629 0.999356 0.874393 0.00284558 0.00171023 -0.000155902
156 1 0.187339 0.0612483 0.936498 -0.00387854 0.0301875 -0.0019677
157 1 0.123115 0.12287 0.997334 0.0153496 0.0146764 0.0355021
158 1 0.185158 0.184299 0.0505971 -0.11427 -0.0479033 0.0401135
159 1 0.131357 0.130396 0.128911 -0.289005 -0.23319 -0.188366
160 1 0.119985 0.119147 0.249161 0.0932528 0.1443 0.0304364
161 1 0.185324 0.184022 0.312343 0.0961235 0.0939801 -0.0860432
162 1 0.124634 0.124711 0.3757 -0.00897319 -0.0590046 -0.059335
163 1 0.190978 0.190553 0.432998 -0.122729 -0.0853429 0.275103
164 1 0.12587 0.125573 0.499539 -0.0354251 -0.013841 0.0308701
165 1 0.187425 0.187262 0.562491 -0.00905293 -0.00880468 -0.0057544
166 1 0.12496 0.124886 0.625005 -0.00528235 -0.00504425 0.0252262
167 1 0.187464 0.187414 0.687456 -0.00160101 -0.00139661 -5.92303e-05
168 1 0.124883 0.124872 0.749955 -0.000245222 -0.000641749 -0.00223911
169 1 0.18737 0.187348 0.812345 0.000440058 0.00034154 0.0115264
170 1 0.124461 0.124429 0.87453 -0.0134904 -0.013658 -0.0295405
171 1 0.186886 0.186701 0.935333 -0.00173135 -0.00482403 0.169346
172 1 0.123649 0.251467 0.99809 0.0110103 -0.0454353 0.0339466
173 1 0.192217 0.309815 0.0664486 -0.133596 0.121684 -0.230983
174 1 0.120283 0.250062 0.116314 0.0297313 0.0441016 0.112971
175 1 0.185429 0.314569 0.185432 0.0354927 -0.0354937 0.0354935
176 1 0.116849 0.24881 0.38156 0.0390657 0.00284288 -0.0156793
177 1 0.184807 0.314307 0.446936 -0.0572768 0.0907138 -0.028859
178 1 0.12337 0.248494 0.501184 0.0300315 0.0179642 -0.0121196
179 1 0.18703 0.312708 0.563728 -0.0101474 -0.00170388 -0.122948
180 1 0.124722 0.24981 0.624902 -0.020019 -0.0127395 0.0541636
181 1 0.187412 0.31249 0.687531 8.19627e-05 -0.00116637 -0.00835101
182 1 0.124929 0.250004 0.749996 -0.00139446 0.000348362 -0.00228017
183 1 0.187487 0.312515 0.812586 -0.000173292 0.00333689 -0.00456901
184 1 0.124728 0.250233 0.874985 -0.0222206 0.0142632 -0.0537228
185 1 0.187618 0.312777 0.937655 -0.0047271 0.0121561 -0.026962
186 1 0.125806 0.374514 0.000454013 -0.0508972 0.0086374 -0.0280275
187 1 0.185888 0.439097 0.0611576 0.0228826 -0.0130382 0.0635019
188 1 0.124165 0.375833 0.124168 0.0348989 -0.0348997 0.0349
189 1 0.190183 0.433552 0.19222 -0.121682 0.230982 -0.133596
190 1 0.116311 0.379715 0.24994 0.112972 -0.0297322 -0.0441012
191 1 0.186413 0.445011 0.313296 -0.143896 0.10279 0.195142
192 1 0.128908 0.368642 0.369605 -0.188365 0.289003 0.233188
193 1 0.185199 0.437529 0.437717 -0.017349 0.105082 0.117866
194 1 0.12329 0.376359 0.50179 0.00471747 -0.0167865 -0.0491656
195 1 0.187443 0.437926 0.562774 -0.00838428 -0.00492402 0.0217922
196 1 0.124667 0.375249 0.625126 -0.0149078 0.0131335 0.0323478
197 1 0.187504 0.437508 0.687511 -0.000617102 0.000520093 0.000270294
198 1 0.124955 0.375057 0.750006 0.000494263 -0.000723072 -0.000585303
199 1 0.187459 0.437604 0.812422 -0.00058178 -0.0012895 0.0019038
200 1 0.125003 0.375121 0.875038 -0.00636968 0.00267208 -0.0252135
201 1 0.187069 0.438367 0.93691 -0.00589719 -0.0333532 0.0271584
202 1 0.124353 0.500704 0.99931 -0.000524494 0.0105898 -0.0132348
203 1 0.186715 0.563446 0.0614151 -0.00549935 -0.0414717 0.0640359
204 1 0.125484 0.499547 0.125809 -0.00863646 0.0280268 -0.0508966
205 1 0.187222 0.562346 0.187621 -0.012156 0.0269623 -0.00472708
206 1 0.123284 0.500636 0.249283 0.0681993 0.00239623 -0.0320322
207 1 0.187287 0.563177 0.312544 -0.0163212 -0.0468916 0.0100669
208 1 0.124059 0.50083 0.375687 -0.0252191 -0.0332108 0.0219845
209 1 0.187285 0.562534 0.437827 -0.00171957 0.0402207 0.0137849
210 1 0.124457 0.500797 0.500909 -0.0119359 -0.0766234 -0.0791956
211 1 0.187527 0.562714 0.562742 0.00116789 0.00379733 0.00398831
212 1 0.124902 0.50026 0.625279 -9.70473e-05 -0.000418811 -0.000711163
213 1 0.187498 0.562619 0.68759 -0.000331114 -0.000172651 -0.000504848
214 1 0.124959 0.500113 0.749963 -0.00101554 -0.000605345 0.000617204
215 1 0.187449 0.562662 0.812343 -0.000367606 0.000296553 -0.00108462
216 1 0.124708 0.500373 0.874622 -0.00240056 -0.00409042 0.00399544
217 1 0.187302 0.562956 0.937043 -0.000613917 -0.00159538 0.00154909
218 1 0.124547 0.625522 0.999483 -0.000149695 -0.00849856 0.00729663
219 1 0.187332 0.687641 0.0623414 -0.000693744 -0.000753883 0.00181819
220 1 0.124877 0.624963 0.125005 -0.00267205 0.0252133 -0.00636966
221 1 0.187483 0.687415 0.18749 -0.00333693 0.00456907 -0.000173263
222 1 0.124759 0.624864 0.249959 -0.0149598 0.0394664 -0.0104467
223 1 0.187518 0.687473 0.31244 -0.00139935 -0.00162704 0.00101214
224 1 0.12488 0.624939 0.375053 -0.0162087 0.0328116 0.0145826
225 1 0.187489 0.687466 0.437478 -0.00131148 0.00138499 0.000456532
226 1 0.124907 0.625142 0.50014 -0.000505513 0.000432178 0.001021
227 1 0.187476 0.687511 0.56256 0.000194128 0.000640084 0.000474797
228 1 0.124961 0.62511 0.625096 -0.000296154 0.00149488 0.00202708
229 1 0.187468 0.6875 0.687493 -8.10849e-05 -7.43003e-05 0.000211138
230 1 0.124925 0.625117 0.749941 1.1689e-05 -6.41545e-05 -0.000363413
231 1 0.187417 0.687595 0.812315 0.000242332 -0.00100217 0.000611956
232 1 0.124808 0.625269 0.874692 0.000582672 -0.00238647 0.00168356
233 1 0.187354 0.687723 0.937201 0.0010546 0.000317739 -6.84338e-05
234 1 0.124851 0.75005 0.999828 -0.00103729 -0.000976317 -0.000340781
235 1 0.187464 0.812459 0.0623818 0.00117289 -0.000963068 -0.00156345
236 1 0.124942 0.749995 0.124958 0.000723071 0.000585288 0.00049431
237 1 0.187509 0.81247 0.187415 0.0011664 0.00835109 8.2036e-05
238 1 0.125024 0.750005 0.249984 -0.000410536 1.89596e-05 -0.000345232
239 1 0.187619 0.812585 0.312421 -0.00175033 0.000732469 0.000802647
240 1 0.125075 0.749995 0.374928 -0.00121067 0.000496871 6.02528e-05
241 1 0.187477 0.812411 0.437517 -0.000177593 0.0023622 -0.0025808
242 1 0.124981 0.749937 0.500004 -0.0010839 0.00144923 -0.00102449
243 1 0.18743 0.812305 0.562605 0.0012621 -0.000717364 0.000332871
244 1 0.124929 0.749923 0.625018 0.000380769 -0.000113615 0.000536028
245 1 0.187418 0.81232 0.687498 0.000420128 0.000114701 -0.000683213
246 1 0.124883 0.749954 0.749886 0.000576508 -0.000453105 0.000182413
247 1 0.187407 0.812344 0.812311 0.000529184 -0.0006865 -0.000361718
248 1 0.12483 0.750015 0.874757 0.000595333 -0.000349907 -7.0969e-05
249 1 0.187392 0.812331 0.937232 0.000859749 -0.000403215 -0.00136005
250 1 0.124746 0.874631 0.999604 0.00155059 -0.00125366 -0.00127787
251 1 0.187499 0.937006 0.0616912 -0.00745786 -0.0155048 0.00580854
252 1 0.124749 0.874875 0.12467 -0.0131334 -0.0323478 -0.0149078
253 1 0.18729 0.936273 0.187032 0.00170377 0.122948 -0.0101473
254 1 0.124942 0.87518 0.250069 -0.0192279 -0.0535469 0.0113964
255 1 0.187756 0.937782 0.312296 -0.0123899 -0.00693002 0.00957113
256 1 0.125193 0.875204 0.374845 -0.00698755 -0.0281512 0.00625879
257 1 0.187039 0.936829 0.438309 -0.00678017 0.0476402 -0.0631147
258 1 0.124746 0.874644 0.500252 -0.000869747 0.0084189 -0.00769755
259 1 0.187385 0.937153 0.562758 -0.00109007 -0.00226634 0.00230815
260 1 0.124869 0.874762 0.625089 2.57014e-05 0.000218403 -0.000399208
261 1 0.187399 0.937194 0.68761 0.00116558 -0.00063668 -6.00458e-05
262 1 0.124845 0.874747 0.749889 0.000984317 -0.000694349 -0.000148564
263 1 0.187408 0.937133 0.812226 0.000658884 -0.00135304 -0.000962075
264 1 0.12477 0.874673 0.874662 0.00198113 -0.00135395 -0.00131308
265 1 0.187368 0.936889 0.936901 0.00509325 -0.00251263 -0.00400316
266 1 0.250058 0.999118 0.999097 -0.00125672 0.0302429 0.0249112
267 1 0.314478 0.0608174 0.0606718 -0.00467819 0.0138949 0.0195253
268 1 0.251505 0.998818 0.123372 -0.0179641 0.0121195 0.0300315
269 1 0.309446 0.0670029 0.190981 0.0853431 -0.275104 -0.122728
270 1 0.250523 0.998931 0.249693 -0.0028715 -0.212393 -0.00436342
271 1 0.31526 0.0527458 0.314725 0.0587187 0.035696 0.0783122
272 1 0.249053 0.998811 0.376206 0.00790796 0.0153246 -0.0224981
273 1 0.314869 0.0615147 0.438335 0.00153269 -0.0795487 0.0823762
274 1 0.25019 0.999456 0.500447 0.000874528 0.0165644 -0.0125048
275 1 0.312646 0.0615842 0.563081 0.00402281 0.0136761 0.0129414
276 1 0.249984 0.999513 0.625382 0.00237481 -0.000519261 0.000964894
277 1 0.312559 0.0622857 0.687592 -0.000325968 -0.000986344 0.000799479
278 1 0.250004 0.999751 0.749959 0.000999527 -0.000631241 -0.00135657
279 1 0.31265 0.0622296 0.812322 0.00289458 0.000564206 -0.00207222
280 1 0.250117 0.999382 0.874446 -0.00245817 -0.00026646 -0.000806866
281 1 0.313379 0.0612666 0.93649 0.00388722 0.0434194 0.0197912
282 1 0.251514 0.122829 0.997766 -0.0304472 0.0548488 0.0413927
283 1 0.310026 0.190961 0.0654247 0.0688045 -0.00318122 -0.120924
284 1 0.251188 0.118442 0.116852 -0.00284331 0.0156794 0.039066
285 1 0.315976 0.187658 0.185327 -0.0939797 0.0860432 0.0961238
286 1 0.250198 0.118158 0.380738 -0.0252631 0.0390645 -0.0194198
287 1 0.314722 0.184738 0.447255 0.0783117 -0.0587182 -0.0356961
288 1 0.24888 0.123289 0.501199 0.00933717 0.0387295 -0.00562472
289 1 0.312867 0.186902 0.563925 -0.00110062 -0.00496203 -0.12879
290 1 0.249898 0.124613 0.624972 -0.0130646 -0.017777 0.0530804
291 1 0.312535 0.187346 0.68758 -0.000870815 0.00126944 -0.00932237
292 1 0.249988 0.124847 0.749991 0.00087965 -0.000998933 -0.00202615
293 1 0.312476 0.187423 0.812546 0.00477203 0.000148653 -0.00369355
294 1 0.250165 0.124499 0.87483 0.020067 -0.0177715 -0.0444774
295 1 0.312763 0.187329 0.937352 0.0055544 -0.00428671 -0.0207095
296 1 0.249525 0.249183 0.99816 0.0224781 0.0486346 -0.0291797
297 1 0.313294 0.313585 0.0549903 0.195141 0.143894 -0.102788
298 1 0.250044 0.249954 0.250047 -0.0292006 0.0292023 -0.0292032
299 1 0.31234 0.314674 0.315979 -0.0860431 -0.0961235 -0.0939791
300 1 0.307762 0.307892 0.432894 0.164007 0.176466 0.270054
301 1 0.249691 0.249476 0.501071 -0.00436349 0.00287137 0.212395
302 1 0.312293 0.312242 0.562219 0.00957105 0.0123899 0.00693031
303 1 0.249934 0.249848 0.624853 -0.00163092 0.00194622 0.0712682
304 1 0.312419 0.312379 0.687416 0.000802627 0.00175028 -0.000732468
305 1 0.249945 0.249929 0.750008 0.000769813 0.000752226 -0.00171963
306 1 0.312437 0.31248 0.812528 0.00101221 0.0013994 0.00162705
307 1 0.249918 0.249903 0.875073 0.0108209 0.0104361 -0.0648184
308 1 0.312541 0.312712 0.936824 0.0100668 0.0163212 0.0468915
309 1 0.24928 0.376714 0.999366 -0.0320321 -0.0681988 -0.00239692
310 1 0.314708 0.438854 0.0618102 -0.00457802 0.0835767 -0.0490407
311 1 0.249937 0.383687 0.120286 -0.0441012 -0.11297 0.0297306
312 1 0.3157 0.449404 0.18516 0.0479034 -0.0401132 -0.11427
313 1 0.309038 0.434576 0.310028 0.00317994 0.120922 0.0688032
314 1 0.249158 0.380014 0.380854 0.0304351 -0.0932534 -0.1443
315 1 0.313631 0.438373 0.438249 -0.0241196 -0.0579858 -0.00899772
316 1 0.250977 0.376029 0.500838 -0.00500066 -0.0287722 -0.00213906
317 1 0.312951 0.438179 0.563084 -6.96389e-05 -0.0592538 -0.0541881
318 1 0.250066 0.375056 0.624821 0.0113964 0.0192279 0.0535469
319 1 0.312535 0.437482 0.687546 -0.000687682 -0.00224729 -0.00349056
320 1 0.249981 0.374974 0.749997 -0.000345263 0.000410543 -1.9002e-05
321 1 0.312508 0.437529 0.812499 -0.000317817 0.00101991 -0.000925817
322 1 0.249956 0.375239 0.875137 -0.0104467 0.0149598 -0.0394666
323 1 0.312647 0.438078 0.937361 0.000327432 0.0148115 -0.0345494
324 1 0.250046 0.50082 0.999466 0.00691972 -0.0369281 0.0216232
325 1 0.312566 0.563285 0.0616183 0.0101368 0.0132592 0.0235023
326 1 0.248531 0.501911 0.123652 0.0454355 -0.0339466 0.0110102
327 1 0.313297 0.564668 0.186889 0.00482435 -0.169345 -0.00173148
328 1 0.250815 0.501841 0.249528 -0.0486339 0.0291772 0.0224777
329 1 0.31267 0.562649 0.312766 0.00428659 0.0207098 0.00555448
330 1 0.250613 0.500971 0.376293 0.0298369 -0.0324159 -0.0531566
331 1 0.312891 0.563019 0.438139 -0.00262797 -0.0193182 -0.0205882
332 1 0.249776 0.500047 0.500152 -0.0056553 -0.00716159 -0.0187239
333 1 0.312529 0.562577 0.562606 0.00187959 0.0034122 0.00314335
334 1 0.250018 0.500176 0.625207 -0.00403591 0.00108575 0.00305951
335 1 0.312549 0.562565 0.687576 -0.00137881 0.000533995 0.000935157
336 1 0.250017 0.500038 0.749988 -0.000753742 -0.000263024 -0.000654042
337 1 0.312553 0.562637 0.812358 -0.00123632 0.000531022 -0.000179276
338 1 0.25002 0.500298 0.874754 0.000340019 0.0014308 -0.002485
339 1 0.312549 0.563045 0.936982 -0.00441062 0.00141425 0.000201611
340 1 0.249887 0.625484 0.999529 0.0029551 0.00084379 -0.000924322
341 1 0.312499 0.687618 0.0623396 -8.79995e-05 0.00403554 -0.00193128
342 1 0.249765 0.625016 0.124731 -0.0142633 0.0537226 -0.0222206
343 1 0.31265 0.687656 0.187373 -0.000341563 -0.0115262 0.000440027
344 1 0.250095 0.624928 0.249921 -0.010436 0.0648187 0.0108209
345 1 0.312576 0.687455 0.312478 -0.000148696 0.00369359 0.00477195
346 1 0.250007 0.624923 0.37512 0.0101673 0.0334549 0.0157084
347 1 0.312533 0.687543 0.437574 -0.000198344 -0.00114049 -0.000389854
348 1 0.249947 0.625083 0.500122 -0.000884015 0.004339 0.00207682
349 1 0.312502 0.687484 0.562586 0.00028504 0.00220206 0.00088206
350 1 0.25004 0.62506 0.625095 -0.000337413 -0.000151348 -0.000388301
351 1 0.312532 0.687473 0.687521 0.000213427 -0.000255955 -0.000332356
352 1 0.250005 0.625074 0.749953 -0.00017783 -0.000459636 -0.000398117
353 1 0.312531 0.687574 0.812333 0.000123222 -0.00078834 0.00028535
354 1 0.249942 0.625266 0.874696 -0.000252081 -0.00146791 0.00114733
355 1 0.312525 0.687723 0.937197 -1.01031e-05 -2.33252e-05 -0.00037443
356 1 0.24996 0.750027 0.999838 0.000457235 7.57695e-05 -0.000716033
357 1 0.3126 0.812396 0.0623549 0.00119296 0.00204304 0.000595731
358 1 0.249994 0.750005 0.124932 -0.000348389 0.00228014 -0.00139442
359 1 0.312584 0.812545 0.187466 0.00139653 5.93267e-05 -0.00160092
360 1 0.25007 0.749993 0.249948 -0.000752251 0.00171965 0.000769838
361 1 0.312652 0.812421 0.312538 -0.00126947 0.00932248 -0.000870723
362 1 0.250041 0.749986 0.374974 -0.00100293 -0.000577776 0.000405127
363 1 0.312549 0.812412 0.437588 -0.000543138 -0.00124862 0.000639284
364 1 0.249986 0.749928 0.500038 8.08038e-06 0.000914638 -0.00027446
365 1 0.312526 0.812256 0.562693 0.000177958 0.000785767 -0.000519369
366 1 0.249979 0.749887 0.625059 0.000303395 0.000415482 -0.00021443
367 1 0.312525 0.812297 0.687545 0.000521416 1.92108e-05 -0.000994549
368 1 0.249978 0.749932 0.749914 0.000386692 -0.000552073 -0.000125378
369 1 0.312556 0.812336 0.812332 0.000735843 -0.000730756 -0.000447129
370 1 0.249965 0.750006 0.874771 0.00037735 -0.000666384 -0.000189117
371 1 0.312585 0.812325 0.937236 0.00016441 -0.00123809 -0.00134192
372 1 0.250055 0.874603 0.999569 -0.00205058 -0.00172615 -0.00212243
373 1 0.3132 0.936693 0.0614917 0.00915598 0.0333565 0.0512589
374 1 0.250188 0.875099 0.124725 0.0127394 -0.0541635 -0.0200189
375 1 0.312737 0.93751 0.187428 0.00880451 0.00575501 -0.0090527
376 1 0.250151 0.875148 0.249937 -0.00194626 -0.0712679 -0.00163082
377 1 0.313096 0.936076 0.31287 0.00496186 0.12879 -0.00110051
378 1 0.249987 0.875107 0.375168 -0.0139259 -0.0526252 0.0182866
379 1 0.312663 0.937003 0.438221 0.00707306 -0.021583 -0.00865546
380 1 0.24999 0.874642 0.500306 0.00325524 -0.00232745 0.00145135
381 1 0.312567 0.936953 0.562982 -0.00274218 -0.00144222 0.00100793
382 1 0.24994 0.874695 0.625186 0.000598877 0.00070733 -0.00154868
383 1 0.312571 0.937161 0.687667 -6.2868e-05 -0.000136184 -0.00166773
384 1 0.249982 0.874736 0.74993 0.000582518 -0.000407448 -0.00108846
385 1 0.312639 0.93714 0.812251 -0.000299279 -0.000812435 -0.0013044
386 1 0.250021 0.874675 0.87468 0.00107077 -0.00104484 -0.000696349
387 1 0.312756 0.936966 0.936991 0.00292833 -0.00339232 -0.00280392
388 1 0.375803 0.999174 0.999266 -0.000237615 -0.00749188 -0.010635
389 1 0.438211 0.0616444 0.0617184 -0.0604011 0.0937057 0.0986564
390 1 0.374426 0.000462208 0.125873 0.0138412 -0.0308704 -0.0354252
391 1 0.438713 0.0614005 0.186293 -0.00471309 0.0450976 0.000175796
392 1 0.376709 0.998802 0.248883 -0.0387295 0.00562448 0.00933717
393 1 0.438484 0.0616657 0.314872 0.0795488 -0.0823761 0.00153331
394 1 0.3768 0.997886 0.376661 -0.0130153 0.0635589 -0.0119934
395 1 0.436731 0.0632673 0.436734 0.0864522 -0.0864524 0.0864527
396 1 0.375897 0.998689 0.501275 0.00213323 0.0823966 -0.0842381
397 1 0.438366 0.0616002 0.563323 -0.00394945 0.00433724 0.0169859
398 1 0.375273 0.999483 0.625463 -0.00160903 0.000731492 -0.00253439
399 1 0.437754 0.0622448 0.687744 -0.000271687 0.000417332 0.000380169
400 1 0.375155 0.999754 0.749984 0.00138037 -0.000233535 -0.000981207
401 1 0.437663 0.0623784 0.812417 -0.000350302 0.0008637 -0.00229882
402 1 0.37549 0.999444 0.874476 0.000926554 0.00529642 0.00507426
403 1 0.437617 0.0624549 0.937364 -0.00329794 0.0016973 0.000958487
404 1 0.374695 0.125569 0.000199547 -0.0281262 -0.0116402 -0.00204157
405 1 0.438246 0.186367 0.0616281 -0.00899822 0.0241196 0.057986
406 1 0.375287 0.124301 0.124637 0.0590041 0.059335 -0.00897329
407 1 0.432891 0.192236 0.192109 0.270054 -0.164007 -0.176466
408 1 0.38184 0.119263 0.250201 -0.0390645 0.0194198 -0.0252623
409 1 0.447252 0.185277 0.315263 -0.0356958 -0.0783129 0.0587193
410 1 0.369777 0.130221 0.36978 0.266369 -0.26637 0.26637
411 1 0.438333 0.18513 0.438486 0.0823759 -0.00153299 0.0795491
412 1 0.376658 0.123198 0.502115 -0.0119939 0.0130155 -0.0635589
413 1 0.438219 0.187335 0.562998 -0.00865569 -0.00707305 0.0215829
414 1 0.375378 0.124556 0.625262 0.0128692 -0.0131898 0.0296545
415 1 0.437585 0.187449 0.687589 0.000639248 0.000543045 0.00124856
416 1 0.375078 0.12489 0.750027 0.000286703 0.000787465 -5.69514e-05
417 1 0.437571 0.187465 0.812458 -0.000389899 0.000198312 0.00114053
418 1 0.375153 0.124874 0.874878 0.0011245 -0.00149781 -0.015243
419 1 0.438136 0.187107 0.936982 -0.0205886 0.00262806 0.0193187
420 1 0.376291 0.249385 0.99903 -0.0531563 -0.0298365 0.0324159
421 1 0.437714 0.314799 0.0624721 0.117867 0.0173487 -0.105083
422 1 0.380851 0.25084 0.119988 -0.144301 -0.0304345 0.0932545
423 1 0.446933 0.315191 0.185694 -0.0288584 0.0572771 -0.0907147
424 1 0.432995 0.30902 0.309449 0.275104 0.122729 0.085343
425 1 0.380735 0.2498 0.381843 -0.0194196 0.0252625 -0.0390643
426 1 0.438598 0.313708 0.438716 -0.0450972 -0.000175611 -0.00471303
427 1 0.376203 0.250946 0.50119 -0.0224985 -0.00790818 -0.0153244
428 1 0.438306 0.312959 0.563172 -0.0631148 0.00678013 -0.0476402
429 1 0.375165 0.250011 0.624894 0.0182864 0.0139259 0.0526253
430 1 0.437515 0.312521 0.68759 -0.00258086 0.000177554 -0.00236228
431 1 0.374971 0.249957 0.750016 0.00040512 0.00100286 0.000577747
432 1 0.437475 0.31251 0.812535 0.000456588 0.00131139 -0.00138497
433 1 0.375117 0.249992 0.875078 0.0157084 -0.0101672 -0.033455
434 1 0.437824 0.312713 0.937467 0.0137849 0.00171947 -0.0402209
435 1 0.375685 0.375939 0.999171 0.0219847 0.0252191 0.0332113
436 1 0.436532 0.436627 0.0633701 0.0826017 0.0960979 -0.0709714
437 1 0.369602 0.37109 0.131359 0.23319 0.188366 -0.289005
438 1 0.438805 0.43904 0.185562 0.0526523 0.0666582 0.00328011
439 1 0.381557 0.383149 0.251191 -0.0156785 -0.039066 -0.00284301
440 1 0.439181 0.439329 0.314481 -0.0138941 -0.0195249 -0.0046776
441 1 0.375697 0.375364 0.37529 -0.059335 0.00897333 0.0590046
442 1 0.438354 0.438283 0.438214 -0.0937051 -0.0986563 -0.0604009
443 1 0.37378 0.373843 0.498987 0.0595993 0.0486375 0.0596461
444 1 0.437189 0.437192 0.562338 0.000501322 0.0002762 -0.00135526
445 1 0.374842 0.374805 0.624797 0.00625871 0.0069876 0.0281512
446 1 0.43739 0.437394 0.687498 0.000910221 0.0012602 0.00444688
447 1 0.374925 0.374923 0.750006 6.03251e-05 0.00121063 -0.000496826
448 1 0.437491 0.437489 0.812456 0.000787474 0.00194475 -0.00146982