ITEM: TIMESTEP
0
ITEM: NUMBER OF ATOMS
1026
ITEM: BOX BOUNDS pp pp pp
0.0000000000000000e+00 2.2857118000000000e+01
0.0000000000000000e+00 2.2857118000000000e+01
0.0000000000000000e+00 2.2857118000000000e+01
ITEM: ATOMS id type xs ys zs fx fy fz
1 1 0.230095 0.222533 0.129758 -0.237283 -0.139954 -0.112523
2 1 0.286348 0.298719 0.152488 0.0458009 -0.284812 0.0384052
3 1 0.22025 0.14179 0.211015 0.0570502 0.13664 0.0952519
4 1 0.152485 0.21365 0.201282 0.0384035 -0.0457936 0.284811
5 1 0.358209 0.288986 0.220253 -0.136638 -0.0952538 0.0570482
6 1 0.277465 0.370244 0.230098 0.139958 0.112524 -0.237284
7 1 0.285711 0.141725 0.284087 -0.178397 0.152578 -0.0892923
8 1 0.358274 0.215914 0.285714 -0.152578 0.089294 -0.178397
9 1 0.129755 0.269904 0.277468 -0.112526 0.23728 0.139956
10 1 0.201279 0.347513 0.286351 0.284811 -0.0384021 0.0457911
11 1 0.284084 0.214288 0.358276 -0.0892931 0.178396 -0.152578
12 1 0.211013 0.279748 0.358212 0.0952543 -0.0570521 -0.136639
13 1 0.999786 0.999964 0.999976 0.000355729 -0.00219941 -0.00318091
14 1 0.0628841 0.0631098 0.0631042 -0.0339964 -0.0327323 -0.0575821
15 1 0.999485 0.99936 0.124698 0.0490296 0.0521465 -0.00648903
16 1 0.0627409 0.0625808 0.18592 -0.0799606 -0.0939103 -0.0316199
17 1 4.19208e-05 0.999944 0.24985 -0.00428994 0.00981284 -0.00389538
18 1 0.0618055 0.0619898 0.313524 0.048976 -0.00361249 -0.0093791
19 1 0.999843 0.999731 0.375283 -0.0243101 -0.0103852 0.007599
20 1 0.0618408 0.0619182 0.438257 0.0908295 0.0320668 -0.0679601
21 1 0.999704 0.999592 0.500365 0.00898399 -4.83948e-05 -0.00456656
22 1 0.0626039 0.0624584 0.562609 -0.00302442 -0.00281479 0.00349724
23 1 0.999934 0.999855 0.625078 -0.00107371 -0.00208058 0.00303605
24 1 0.0624084 0.0623773 0.68756 -0.000359118 -0.000863494 0.00325041
25 1 0.999803 0.999805 0.74987 -0.00109348 -0.00158819 0.000738213
26 1 0.0622108 0.06223 0.812223 -0.00225402 -0.00259294 -0.00400997
27 1 0.999451 0.999505 0.874445 0.0020014 0.000470139 -0.00174222
28 1 0.0614535 0.0614606 0.936442 0.00525676 0.00360103 -0.0115725
29 1 0.998709 0.124068 0.998578 0.0632951 -0.002511 0.0698838
30 1 0.0608269 0.185139 0.0606243 0.0545003 0.0394578 -0.0263604
31 1 0.999821 0.124802 0.124775 0.00604465 -0.0247373 -0.0185845
32 1 0.0568835 0.188447 0.188245 0.00764457 -0.0831014 -0.00888511
33 1 0.99884 0.123809 0.25045 0.0413694 0.0454336 0.0155675
34 1 0.0630935 0.188109 0.311087 -0.0276039 0.0914768 -0.0164186
35 1 0.9997 0.124815 0.375016 0.00965843 0.0349284 -0.0116438
36 1 0.0606362 0.18555 0.439238 2.70048e-05 -0.00853073 0.0339598
37 1 0.999256 0.124205 0.500892 -0.0123497 -0.00328069 0.00468616
38 1 0.0615543 0.186835 0.563312 0.0450984 -0.0111657 -0.0247479
39 1 0.999596 0.124612 0.62545 0.00518285 -0.00201608 -0.00484124
40 1 0.0623653 0.187406 0.68762 0.000983338 -0.00091651 -0.00195052
41 1 0.99982 0.124912 0.749988 -0.000573294 -0.00182709 -0.00110839
42 1 0.0623597 0.187504 0.812417 -0.00219525 4.30036e-05 -0.00539805
43 1 0.999487 0.124773 0.874476 -0.0012531 -0.00110129 -0.00198172
44 1 0.0615876 0.18742 0.936749 0.0170323 -0.0151313 -0.020894
45 1 0.999151 0.249999 0.998826 0.0271449 -0.00458149 0.050983
46 1 0.0605923 0.314482 0.0603132 0.0943937 -0.042075 -0.00868309
47 1 0.999513 0.250366 0.12315 -0.0150553 0.0259089 0.0669287
48 1 0.0656632 0.307704 0.188215 -0.136267 0.125379 -0.056012
49 1 0.999 0.250833 0.251499 0.102561 0.000744987 -0.0520813
50 1 0.0517489 0.315904 0.316307 -0.0229179 0.0565117 0.048763
51 1 0.997624 0.249042 0.377376 0.0667372 -0.000175912 -0.0565891
52 1 0.0607806 0.314403 0.439506 -0.0467805 -0.00551884 0.00725112
53 1 0.999043 0.249908 0.501056 0.0212272 1.90015e-05 -0.0298294
54 1 0.0617171 0.312546 0.563141 0.00900488 0.0101219 0.00241369
55 1 0.999573 0.249937 0.625427 -0.00229699 0.00228422 0.00214898
56 1 0.062386 0.312539 0.687566 -0.00126122 -0.000498863 0.000662042
57 1 0.999842 0.250032 0.749985 -0.000212595 -0.000286288 2.95298e-05
58 1 0.0623497 0.312659 0.812374 0.00198976 0.00118205 0.000162372
59 1 0.999519 0.250101 0.874496 -0.0034285 -0.00228509 -0.00192553
60 1 0.0613974 0.313292 0.936522 0.0505666 0.0125791 0.024593
61 1 0.998997 0.375874 0.998971 -0.00832993 -0.00335258 -0.00222356
62 1 0.0611214 0.438877 0.0611242 0.0826287 -0.0826294 0.0826283
63 1 0.999965 0.374481 0.125053 0.0082684 0.0372238 0.0262075
64 1 0.0603104 0.439406 0.185519 -0.00868322 -0.0943937 0.0420753
65 1 0.997727 0.376259 0.248487 0.0869407 0.0286147 0.0529861
66 1 0.0606215 0.439171 0.314862 -0.0263595 -0.0545018 -0.0394583
67 1 0.997458 0.376991 0.377242 -0.0157047 0.0187601 0.0152617
68 1 0.0631014 0.437114 0.436891 -0.0575802 0.0339944 0.0327302
69 1 0.998765 0.376034 0.501273 0.0470762 0.0071006 -0.0387603
70 1 0.0617529 0.438354 0.563267 0.00669092 -0.00578881 0.00948593
71 1 0.999589 0.375273 0.625402 -0.00095751 0.000291954 0.00255518
72 1 0.0623409 0.437712 0.687665 -7.30267e-05 0.000195365 0.000325877
73 1 0.999823 0.375149 0.749953 1.4989e-05 0.0011156 0.00114293
74 1 0.0624156 0.437641 0.812382 0.000331958 0.000323211 -0.00214049
75 1 0.999456 0.375459 0.874436 0.00340108 0.00139935 0.00386444
76 1 0.0622782 0.437745 0.937112 0.0016779 -0.00227275 0.00416263
77 1 0.999175 0.500824 0.999177 0.00995963 -0.00995968 0.00995951
78 1 0.0622532 0.562889 0.0622809 0.00227292 -0.00416275 0.00167799
79 1 0.998968 0.501001 0.124127 -0.0022231 0.00832961 0.00335279
80 1 0.0616914 0.563031 0.187188 0.010588 -0.00369784 -0.0103144
81 1 0.998823 0.500847 0.250002 0.0509834 -0.0271452 0.00458142
82 1 0.0620382 0.562658 0.312749 -0.0226296 0.033528 0.00538042
83 1 0.998576 0.501289 0.375933 0.0698829 -0.063294 0.00251106
84 1 0.0624416 0.562566 0.437654 -0.00744568 0.0279349 0.00458911
85 1 0.999973 0.500212 0.500037 -0.00318078 -0.000355685 0.00219936
86 1 0.0623033 0.5628 0.56277 -0.00573438 -0.000608356 0.000163422
87 1 0.999656 0.500467 0.625399 0.00307235 -0.00248141 -6.00418e-05
88 1 0.0623991 0.562724 0.687606 0.000276024 -0.000365024 0.000365959
89 1 0.999841 0.500212 0.749996 -0.000111496 0.000383793 -0.000413393
90 1 0.0623107 0.56275 0.81227 -0.000518005 -0.000989885 0.00140027
91 1 0.999719 0.500281 0.874674 0.000606409 -0.000855833 -0.0010135
92 1 0.0620129 0.563079 0.936895 0.00458259 -0.00399487 0.00235497
93 1 0.999717 0.625327 0.999722 0.000855945 0.00101344 0.000606507
94 1 0.0623572 0.687619 0.0624184 -0.000323126 0.00214037 0.000332021
95 1 0.999617 0.625391 0.124743 0.00131962 -0.000759046 -0.00302232
96 1 0.0623813 0.68758 0.187475 0.00106517 -0.00194987 -0.000131275
97 1 0.999701 0.625252 0.250052 -0.000744347 0.0017827 0.000153009
98 1 0.0624739 0.687502 0.312523 -0.000191812 0.000307779 0.000623692
99 1 0.999793 0.625227 0.375186 -8.19245e-05 -0.0011455 0.000897785
100 1 0.0625595 0.687504 0.437462 -0.000602288 0.00110683 0.000312277
101 1 0.999976 0.625157 0.500079 -0.00048657 0.00282539 0.000867886
102 1 0.0624561 0.687544 0.562545 -0.000857146 -7.79948e-05 -0.000438093
103 1 0.999865 0.625178 0.625092 -0.00113262 -0.00073071 -0.000201422
104 1 0.0624076 0.687544 0.687461 0.000463736 -8.30831e-05 0.000228206
105 1 0.999827 0.625192 0.749914 0.00048896 -0.000691986 0.00072837
106 1 0.062311 0.68765 0.812272 0.00080978 -0.00097717 0.000473856
107 1 0.999687 0.625327 0.874645 0.00195236 -0.00200984 0.00133112
108 1 0.0621981 0.687777 0.937163 0.000291852 -0.00220795 0.00140845
109 1 0.999786 0.750005 0.999844 -0.000383746 0.00041335 -0.000111453
110 1 0.062286 0.812336 0.0623437 -0.000195325 -0.000325877 -7.29943e-05
111 1 0.999868 0.750037 0.124968 0.00048431 -0.000844797 -0.000602444
112 1 0.0624746 0.812461 0.187528 -0.00089144 1.71525e-05 -0.00010872
113 1 0.999948 0.750006 0.250037 0.000180758 0.000405481 -0.000413771
114 1 0.0625147 0.812433 0.312555 0.00247758 0.00331223 -0.000377494
115 1 0.999986 0.749976 0.375046 0.000997997 0.000790603 0.000929802
116 1 0.0626154 0.812485 0.43739 -0.00100725 -0.00473319 0.00106076
117 1 5.22659e-05 0.750002 0.499951 -0.000787119 -0.00119175 0.000868546
118 1 0.0623749 0.812318 0.562564 0.000222621 0.00210623 -0.00194898
119 1 0.999902 0.74996 0.624992 0.000159455 0.000174853 -0.000465395
120 1 0.0623612 0.812362 0.687448 0.000370661 -0.00033218 -0.000248446
121 1 0.999819 0.749999 0.749852 0.000753047 -0.000469922 -9.89144e-05
122 1 0.0622799 0.812366 0.812284 0.000980355 -0.000881573 -0.000652292
123 1 0.999724 0.750045 0.874736 0.000770082 -0.00112053 0.000640494
124 1 0.0622252 0.812331 0.93722 3.68757e-05 -0.00146176 -0.000536267
125 1 0.999532 0.874603 0.999659 0.00248127 5.97837e-05 0.00307219
126 1 0.0616443 0.936734 0.0617557 0.00578855 -0.00948641 0.00669062
127 1 0.999698 0.874694 0.124926 0.000610933 -0.000279778 0.000261736
128 1 0.0619905 0.937037 0.187529 0.0200525 0.0104147 -0.00248536
129 1 0.999781 0.874761 0.250072 -0.00144923 -0.00377118 -0.00396074
130 1 0.0618173 0.936857 0.312998 0.0604515 0.0632072 -0.00431026
131 1 0.999779 0.874705 0.375241 0.00646301 0.00873017 0.0003257
132 1 0.0628034 0.937652 0.437191 0.000890166 0.000792567 0.000681598
133 1 8.13633e-05 0.874964 0.499906 -0.00114346 -0.00186524 0.00117575
134 1 0.0623273 0.937227 0.56266 -0.000554176 -0.00207735 0.00334719
135 1 0.99989 0.874835 0.625008 -0.000138908 -0.00104229 0.00104664
136 1 0.0622737 0.937216 0.687581 0.000796021 0.000570064 -0.00204313
137 1 0.999762 0.874779 0.74986 0.000610092 -0.000403906 -0.000635301
138 1 0.0621964 0.937134 0.812197 0.000175257 -0.00130947 -0.00148352
139 1 0.999583 0.874689 0.874658 8.64773e-05 0.00150999 0.00236019
140 1 0.0618245 0.936849 0.936874 -0.00206808 0.0053168 0.00703681
141 1 0.123965 0.998728 0.998768 -0.00710059 0.0387611 0.0470774
142 1 0.185595 0.060495 0.0607833 0.00551865 -0.00725233 -0.046781
143 1 0.123348 0.99812 0.123294 0.0207107 0.00822071 0.0143518
144 1 0.185298 0.0525652 0.18507 -0.0597393 0.082799 -0.0769783
145 1 0.123834 0.999342 0.25114 0.0408672 -0.0324598 -0.00286068
146 1 0.192045 0.0666295 0.30784 -0.193311 -0.202259 0.132689
147 1 0.126104 0.00101657 0.373791 -0.0411469 -0.0599258 0.0564481
148 1 0.186298 0.0611281 0.438748 0.0014229 -0.00387833 -0.0448312
149 1 0.124567 0.999512 0.500389 -0.00629538 -0.0163281 0.0180967
150 1 0.186954 0.061433 0.563314 0.000709206 0.040926 -0.0311357
151 1 0.124669 0.999531 0.625393 0.000893044 0.00490025 -0.00633195
152 1 0.18739 0.0622717 0.687632 0.000252351 0.00103537 -0.0022801
153 1 0.124846 0.999749 0.749955 -0.000584023 -0.00111923 -0.00125154
154 1 0.187385 0.0622299 0.812359 0.00103269 -0.00415448 -0.00572162
155 1 0.12462 0.99936 0.874418 0.000127845 -0.00172382 -0.00268263
156 1 0.187217 0.0611993 0.936528 -0.00922822 0.013898 -0.0138279
157 1 0.123007 0.122759 0.997461 -0.0187598 -0.0152613 -0.0157041
158 1 0.184094 0.183694 0.0517516 -0.0565161 -0.0487611 -0.0229139
159 1 0.130378 0.128787 0.127876 -0.0585202 0.0311135 -0.075262
160 1 0.120353 0.12158 0.249694 0.111306 0.0540963 -0.0890305
161 1 0.185464 0.182959 0.31165 0.183231 0.103095 -0.000456884
162 1 0.12493 0.124803 0.375888 -0.0308446 -0.110529 -0.0214821
163 1 0.190876 0.189976 0.433545 -0.136271 -0.0351052 0.222753
164 1 0.125783 0.125494 0.499684 -0.0222823 -0.00537356 0.0204717
165 1 0.187471 0.187247 0.562523 -0.0103824 -0.0101303 0.00232905
166 1 0.124968 0.124885 0.625042 -0.0052052 -0.00470337 0.0235986
167 1 0.187478 0.18742 0.687471 -0.00181113 -0.00163234 -0.000199999
168 1 0.124898 0.124891 0.749976 -0.000661378 -0.000368427 -0.00130598
169 1 0.187362 0.187368 0.812411 -0.000504444 0.000554846 0.00508185
170 1 0.124517 0.124522 0.874642 -0.0182404 -0.0182062 -0.0345001
171 1 0.186836 0.186732 0.935861 -0.00665771 -0.0192066 0.0836183
172 1 0.12374 0.251514 0.99773 -0.0286145 -0.0529864 0.0869395
173 1 0.192294 0.311786 0.0656661 -0.12538 0.0560137 -0.136271
174 1 0.120887 0.250439 0.113614 0.102696 0.0764124 0.0202597
175 1 0.184589 0.315409 0.184592 0.000515647 -0.000517473 0.000518383
176 1 0.116429 0.248864 0.381543 0.00357896 0.00368909 -0.0835516
177 1 0.185068 0.3147 0.447436 -0.0769783 0.0597385 -0.0827991
178 1 0.123419 0.248539 0.501226 0.0369182 0.0187536 -0.00547969
179 1 0.187115 0.312741 0.563822 -0.00905384 0.00317516 -0.15052
180 1 0.124755 0.249818 0.624926 -0.0192961 -0.0134059 0.0548932
181 1 0.187428 0.312499 0.687548 0.000767655 -0.00140056 -0.00860798
182 1 0.124938 0.250007 0.750004 -0.000627497 4.99527e-05 -0.000522775
183 1 0.18749 0.312508 0.812611 0.000941296 0.00258276 -0.00409152
184 1 0.124786 0.250226 0.875012 -0.0214089 0.0155385 -0.0464247
185 1 0.187739 0.312781 0.937841 0.0104878 0.0218391 -0.0455563
186 1 0.125518 0.374948 0.999968 -0.0372243 -0.0262064 0.00826815
187 1 0.185516 0.439688 0.0605951 0.0420749 0.00868232 0.0943928
188 1 0.123634 0.376364 0.123637 0.0322016 -0.0322031 0.0322039
189 1 0.188212 0.434335 0.192297 -0.0560097 0.136265 -0.125375
190 1 0.113611 0.379112 0.249562 0.0202585 -0.102694 -0.0764138
191 1 0.188243 0.443115 0.311555 -0.00888349 -0.00764488 0.0831004
192 1 0.127874 0.36962 0.371215 -0.0752605 0.0585153 -0.0311178
193 1 0.185917 0.437257 0.43742 -0.0316203 0.0799594 0.0939094
194 1 0.123291 0.376651 0.501881 0.0143525 -0.0207114 -0.00821968
195 1 0.187526 0.438008 0.562965 -0.00248542 -0.0200531 -0.0104158
196 1 0.124681 0.375284 0.625162 -0.0137538 0.0138362 0.0336853
197 1 0.187525 0.437524 0.68754 -0.000108718 0.000891451 -1.71569e-05
198 1 0.124963 0.375062 0.750017 0.000377438 -0.000290766 -0.000566351
199 1 0.187472 0.437617 0.812421 -0.000131268 -0.00106511 0.00194987
200 1 0.125025 0.375135 0.875012 -0.00428853 0.0013742 -0.0200009
201 1 0.187185 0.438307 0.93697 -0.0103143 -0.0105886 0.00369863
202 1 0.124124 0.501031 0.999 0.00335274 0.00222341 -0.00832967
203 1 0.186706 0.563479 0.0614001 -0.0125791 -0.0245922 0.0505656
204 1 0.12505 0.500033 0.12552 0.026208 -0.00826935 -0.0372226
205 1 0.187217 0.56216 0.187742 -0.0218389 0.0455563 0.0104881
206 1 0.123147 0.500485 0.249635 0.0669276 0.0150552 -0.0259092
207 1 0.187533 0.562698 0.312242 -0.0137841 -0.00966845 0.00363701
208 1 0.124772 0.500177 0.375199 -0.0185848 -0.00604258 0.0247378
209 1 0.187271 0.56252 0.437722 -0.00132748 0.0323544 0.014248
210 1 0.124695 0.500513 0.500641 -0.00648908 -0.049028 -0.052145
211 1 0.18754 0.562656 0.562677 0.00199597 0.00195928 0.00189775
212 1 0.124923 0.5003 0.625307 0.000261721 -0.000611041 0.000279682
213 1 0.187513 0.562633 0.687594 -0.000172499 3.88087e-07 -0.000337778
214 1 0.124966 0.50013 0.749964 -0.000602455 -0.000484287 0.000844798
215 1 0.187461 0.562682 0.812329 -0.000342679 0.000251882 -0.000629346
216 1 0.12474 0.500381 0.87461 -0.00302234 -0.00131958 0.000759055
217 1 0.187263 0.563096 0.936906 -0.000136391 -0.00099028 0.000352809
218 1 0.12454 0.625565 0.999459 -0.0013993 -0.00386441 0.00340102
219 1 0.187339 0.687627 0.0623525 -0.00118204 -0.0001624 0.00198978
220 1 0.124864 0.62499 0.125028 -0.00137404 0.0200004 -0.00428836
221 1 0.18749 0.68739 0.187493 -0.00258273 0.00409148 0.000941324
222 1 0.124774 0.624911 0.249974 -0.00455159 0.0178414 -0.00595207
223 1 0.187562 0.687418 0.312392 0.000223808 -0.000410373 -0.000525405
224 1 0.125008 0.624891 0.374946 -0.00648015 0.0178586 0.00688604
225 1 0.187501 0.687452 0.437465 -0.00105491 0.000847699 7.40596e-05
226 1 0.124939 0.625109 0.500113 0.000568221 -0.00181663 -0.00144459
227 1 0.187487 0.687491 0.562546 0.00029296 -4.62137e-05 -2.4216e-05
228 1 0.124976 0.62509 0.625069 -0.000236447 0.000986795 0.00102846
229 1 0.187474 0.687498 0.687484 -6.50968e-05 -5.45371e-05 -0.00013699
230 1 0.124933 0.625134 0.749927 -7.70146e-05 1.10111e-05 -7.49046e-05
231 1 0.187427 0.687619 0.812298 0.0002132 -0.000707964 5.66551e-05
232 1 0.124789 0.625338 0.874629 0.00100275 -0.00177744 0.000867268
233 1 0.18736 0.687742 0.937189 0.000543868 0.000648283 -0.000874346
234 1 0.124849 0.750048 0.999826 -0.00111556 -0.00114294 1.49903e-05
235 1 0.187459 0.812435 0.0623887 0.000498862 -0.000662053 -0.00126116
236 1 0.124937 0.749985 0.124966 0.000290786 0.000566325 0.000377481
237 1 0.1875 0.812453 0.187431 0.00140051 0.00860799 0.000767654
238 1 0.125028 0.749997 0.249992 0.000230956 -0.00102622 0.00028127
239 1 0.187635 0.812569 0.312422 -0.00162152 0.000591347 0.000635615
240 1 0.125104 0.749973 0.374912 -0.000556893 -6.01552e-05 -0.000128396
241 1 0.187483 0.812394 0.437524 -0.000348676 0.00168207 -0.0024604
242 1 0.124988 0.749923 0.5 -0.00104073 0.000487155 -0.00123055
243 1 0.187426 0.812287 0.562616 0.00125434 -0.000988308 0.00046605
244 1 0.124933 0.749915 0.625014 0.000524376 -0.000493586 0.000377397
245 1 0.187418 0.812322 0.687507 0.000421438 -0.000322279 -0.000699034
246 1 0.124888 0.749966 0.749877 0.0004865 -0.00041537 -0.000338618
247 1 0.187411 0.812355 0.812319 0.000511443 -0.000939782 -0.000931871
248 1 0.124832 0.75003 0.874747 0.000472159 -0.000404422 -0.000613557
249 1 0.187397 0.812325 0.937234 0.000246356 -0.000468744 -0.00100955
250 1 0.124726 0.874599 0.999592 -0.000291956 -0.00255522 -0.000957556
251 1 0.187453 0.93686 0.0617199 -0.0101221 -0.00241457 0.00900448
252 1 0.124714 0.874839 0.124684 -0.0138361 -0.0336853 -0.0137538
253 1 0.187258 0.936179 0.187118 -0.00317524 0.150519 -0.00905376
254 1 0.124933 0.875165 0.250111 -0.0178586 -0.0551763 0.0135316
255 1 0.187798 0.937762 0.312303 -0.0172658 -0.00711857 0.003463
256 1 0.125208 0.875179 0.374856 -0.00632152 -0.0270052 0.00597693
257 1 0.187022 0.936825 0.438313 -0.00754965 0.0414649 -0.0580423
258 1 0.124743 0.874627 0.500261 -0.000804543 0.00870126 -0.00830907
259 1 0.187369 0.937122 0.562791 -0.00185116 -0.0029841 0.00294246
260 1 0.124862 0.874755 0.625103 0.00011067 -0.000491124 -0.000134847
261 1 0.187387 0.937191 0.687633 0.00140931 -0.00100668 0.000138811
262 1 0.124849 0.874759 0.749904 0.000794433 -0.00132821 -0.000390179
263 1 0.187412 0.937154 0.812258 -4.37341e-05 -0.00212481 -0.00146584
264 1 0.124769 0.874676 0.874671 0.00111175 -0.00160026 -0.00155059
265 1 0.187332 0.936885 0.936931 0.00201308 -0.00504256 -0.00587089
266 1 0.25009 0.998945 0.999046 -1.90334e-05 0.0298301 0.021228
267 1 0.314449 0.0607629 0.0606389 0.00853015 -0.0339587 2.86888e-05
268 1 0.251459 0.998775 0.123422 -0.0187532 0.00547995 0.0369178
269 1 0.310023 0.0664557 0.190879 0.0351063 -0.222755 -0.136271
270 1 0.250673 0.999149 0.249725 -0.00869259 -0.231139 -0.00679039
271 1 0.315556 0.0524472 0.314987 0.0505861 0.0346288 0.0701984
272 1 0.249097 0.998677 0.37632 0.013246 0.0184415 -0.0247823
273 1 0.314977 0.0613344 0.43851 -0.00120305 -0.0773384 0.0782616
274 1 0.250215 0.999337 0.500557 0.000207309 0.020189 -0.0152609
275 1 0.312694 0.0614747 0.563204 0.00498423 0.015592 0.0104817
276 1 0.249963 0.999483 0.625421 0.00263953 -0.000308945 0.000794892
277 1 0.312559 0.0622688 0.687624 -0.000514362 -0.0014246 0.0013884
278 1 0.249988 0.999761 0.749987 0.000957796 -0.000968514 -0.000884662
279 1 0.312595 0.0622567 0.812367 0.00294846 -0.00145421 -0.00418967
280 1 0.2501 0.999427 0.87451 -0.000554953 -0.00195824 -0.00185597
281 1 0.31323 0.0614538 0.936693 0.00995209 0.00345931 -0.0207619
282 1 0.250956 0.122625 0.997627 0.000174865 0.0565894 0.0667369
283 1 0.311889 0.188914 0.0630963 -0.0914734 0.0164178 -0.0276062
284 1 0.251134 0.118458 0.116431 -0.0036934 0.0835549 0.00358415
285 1 0.317039 0.188351 0.185467 -0.103093 0.000456408 0.183232
286 1 0.250248 0.117794 0.380861 -0.0246924 0.0506945 -0.0269552
287 1 0.314984 0.184443 0.447554 0.070197 -0.0505849 -0.0346288
288 1 0.248967 0.123091 0.501359 0.0129735 0.0434028 -0.00873281
289 1 0.312886 0.186881 0.563985 0.00138568 -0.00842143 -0.134318
290 1 0.249912 0.124578 0.625014 -0.0139751 -0.0172893 0.051263
291 1 0.312535 0.187339 0.6876 -0.000863338 0.00120931 -0.00954956
292 1 0.249966 0.124849 0.750001 0.000494178 -0.00106837 -0.00041585
293 1 0.312434 0.187411 0.81256 0.00304159 5.92256e-05 -0.00303848
294 1 0.250024 0.124528 0.874832 0.0211412 -0.0180268 -0.0364491
295 1 0.312648 0.187196 0.937326 0.0120745 -0.00219412 -0.0370686
296 1 0.249165 0.248502 0.999003 -0.000746277 0.0520804 0.102562
297 1 0.311552 0.311756 0.0568863 0.0831023 0.0088865 0.00764493
298 1 0.250015 0.249983 0.250018 -0.0620689 0.0620718 -0.062073
299 1 0.311647 0.314534 0.317042 -0.000457277 -0.183231 -0.103093
300 1 0.307837 0.307953 0.433372 0.132689 0.193312 0.202258
301 1 0.249722 0.249326 0.500852 -0.0067905 0.00869248 0.231141
302 1 0.3123 0.3122 0.562239 0.00346285 0.0172659 0.00711882
303 1 0.249951 0.249836 0.624842 -0.000620756 0.000803351 0.0754647
304 1 0.31242 0.312363 0.687432 0.000635599 0.00162152 -0.000591342
305 1 0.249936 0.249923 0.750023 0.000274065 0.000482974 -0.000566899
306 1 0.31239 0.312437 0.812583 -0.000525358 -0.000223812 0.000410362
307 1 0.249845 0.249851 0.875182 0.00950484 0.00919539 -0.055976
308 1 0.312239 0.312465 0.937303 0.00363699 0.0137842 0.00966828
309 1 0.249632 0.376851 0.999516 -0.0259094 -0.0669294 -0.0150547
310 1 0.31486 0.439377 0.0608297 -0.0394577 0.0263603 0.054501
311 1 0.249559 0.386387 0.120889 -0.0764128 -0.0202583 0.102693
312 1 0.316305 0.448249 0.184097 0.0487633 0.0229129 -0.0565138
313 1 0.311084 0.436905 0.311892 -0.0164146 0.027608 -0.0914741
314 1 0.249691 0.379646 0.378421 -0.0890312 -0.111306 -0.0540974
315 1 0.313521 0.438193 0.438011 -0.00937892 -0.0489755 0.00361277
316 1 0.251137 0.376164 0.500659 -0.00286111 -0.0408674 0.0324603
317 1 0.312995 0.438181 0.563144 -0.00431031 -0.0604515 -0.0632071
318 1 0.250108 0.375065 0.624836 0.0135316 0.0178585 0.0551764
319 1 0.312552 0.437484 0.687568 -0.000377468 -0.00247762 -0.00331222
320 1 0.249989 0.37497 0.750004 0.000281271 -0.000230955 0.00102622
321 1 0.31252 0.437524 0.812499 0.00062376 0.000191851 -0.000307798
322 1 0.249971 0.375224 0.875091 -0.00595203 0.00455178 -0.0178418
323 1 0.312746 0.43796 0.937343 0.00538041 0.0226298 -0.0335283
324 1 0.249999 0.501175 0.999154 0.00458135 -0.050983 0.0271449
325 1 0.312578 0.563252 0.0615904 0.0151311 0.0208944 0.0170318
326 1 0.248485 0.502271 0.123742 0.0529855 -0.0869406 -0.0286143
327 1 0.313266 0.56414 0.186839 0.0192067 -0.083616 -0.00665785
328 1 0.251496 0.500998 0.249168 -0.0520793 -0.102558 -0.000746499
329 1 0.312803 0.562675 0.312651 0.00219396 0.0370686 0.0120746
330 1 0.250447 0.501158 0.376192 0.0155679 -0.0413701 -0.0454344
331 1 0.312861 0.562935 0.43801 -0.00318276 0.000608113 -0.00086198
332 1 0.249847 0.499956 0.500057 -0.00389543 0.00429012 -0.00981277
333 1 0.312533 0.562559 0.56258 0.000895013 0.00250313 0.0018276
334 1 0.250069 0.500217 0.62524 -0.00396082 0.00144919 0.00377111
335 1 0.312572 0.562579 0.68759 -0.00160324 0.000746827 0.000805821
336 1 0.250034 0.50005 0.749996 -0.000413715 -0.000180747 -0.000405486
337 1 0.312573 0.562641 0.812355 -0.000927367 0.000319328 -0.000139954
338 1 0.250049 0.500297 0.874749 0.00015311 0.000744411 -0.00178278
339 1 0.312612 0.563109 0.936893 -0.00372598 0.00304284 -0.0013371
340 1 0.249897 0.625505 0.999522 0.00228502 0.00192548 -0.00342851
341 1 0.312495 0.687584 0.0623625 -4.30574e-05 0.00539805 -0.00219522
342 1 0.249772 0.624989 0.124789 -0.0155385 0.0464242 -0.0214087
343 1 0.31263 0.68759 0.187365 -0.000554906 -0.0050817 -0.000504414
344 1 0.250147 0.624819 0.249848 -0.00919524 0.0559759 0.00950467
345 1 0.312588 0.687442 0.312437 -5.92846e-05 0.0030385 0.00304155
346 1 0.250017 0.624963 0.375047 0.00570699 0.0134669 0.0069209
347 1 0.312533 0.68752 0.437555 -0.000220906 0.000148863 0.000841858
348 1 0.249956 0.625039 0.500078 -0.000397837 0.00280523 0.000999261
349 1 0.312501 0.687466 0.562576 -9.9734e-06 0.00141235 0.000576816
350 1 0.250039 0.625044 0.625075 9.57015e-05 -0.000572667 -0.000607472
351 1 0.312535 0.687468 0.687516 0.000267496 -0.000233533 -0.000348147
352 1 0.250019 0.625084 0.74995 -0.000123681 -8.48141e-05 -0.000250532
353 1 0.312544 0.687592 0.812324 4.36395e-05 -0.000571161 -0.000285042
354 1 0.249964 0.625308 0.874659 -0.000199692 -0.00102894 0.000246002
355 1 0.312535 0.687727 0.937197 0.000226828 0.000551975 -0.000991329
356 1 0.249966 0.750017 0.999845 0.000286279 -2.95431e-05 -0.000212584
357 1 0.312593 0.812381 0.0623681 0.000916432 0.00195055 0.000983399
358 1 0.249991 0.749997 0.124941 -4.99745e-05 0.000522757 -0.000627435
359 1 0.312579 0.81253 0.187481 0.00163226 0.000200058 -0.00181109
360 1 0.250076 0.749978 0.249939 -0.000482997 0.000566916 0.000274075
361 1 0.31266 0.812401 0.312538 -0.00120939 0.00954968 -0.000863287
362 1 0.250048 0.749971 0.374965 -0.000705796 -0.00121159 -0.000178937
363 1 0.312561 0.812383 0.4376 -0.000992306 -0.00167963 0.00115606
364 1 0.249991 0.74991 0.500036 4.58564e-05 0.000441597 -0.000233892
365 1 0.312528 0.812232 0.56271 -3.67458e-05 0.000367258 -9.50733e-05
366 1 0.24998 0.749878 0.625061 0.000237921 -0.000101995 -0.000148636
367 1 0.312525 0.812296 0.687561 0.000534905 -0.000578641 -0.000837239
368 1 0.249983 0.74994 0.749913 0.000424246 -0.000576802 -0.000530476
369 1 0.312555 0.812345 0.812347 0.00051646 -0.000862004 -0.000784878
370 1 0.249974 0.750014 0.874772 0.000365458 -0.000586414 -0.000743841
371 1 0.31259 0.812318 0.937243 -0.000196455 -0.00124872 -0.00107003
372 1 0.250061 0.874574 0.999576 -0.00228422 -0.00214892 -0.00229694
373 1 0.313163 0.936689 0.0615571 0.0111657 0.0247479 0.0450985
374 1 0.25018 0.875075 0.124758 0.0134058 -0.054893 -0.019296
375 1 0.312751 0.937478 0.187474 0.0101303 -0.00232866 -0.0103822
376 1 0.250162 0.875159 0.249954 -0.000803491 -0.0754641 -0.000620745
377 1 0.313117 0.936016 0.312888 0.00842123 0.134317 0.00138572
378 1 0.250002 0.875072 0.375196 -0.0147066 -0.051721 0.0178956
379 1 0.312694 0.936902 0.438311 0.00892658 -0.0194508 -0.0110791
380 1 0.249977 0.874606 0.500338 0.0034351 -0.00201952 0.00102512
381 1 0.312593 0.936896 0.563043 -0.0029668 -0.00192529 0.00122822
382 1 0.249935 0.874679 0.625209 0.000581985 0.000179917 -0.00124595
383 1 0.312561 0.937153 0.6877 0.000193496 -0.000803934 -0.00100308
384 1 0.24998 0.874746 0.749953 0.000391167 -0.00102179 -0.000934669
385 1 0.31262 0.937168 0.812291 0.000204548 -0.00157775 -0.00164482
386 1 0.250013 0.874685 0.874702 0.000827545 -0.00146893 -0.000940872
387 1 0.312755 0.936955 0.936995 0.0035189 -0.00665457 -0.00531689
388 1 0.375793 0.999109 0.999259 0.0032803 -0.00468568 -0.0123492
389 1 0.43808 0.0617443 0.0618436 -0.032067 0.0679603 0.0908296
390 1 0.374505 0.000316863 0.125786 0.0053735 -0.0204716 -0.0222827
391 1 0.43887 0.0612533 0.186301 0.00387764 0.0448316 0.00142288
392 1 0.376907 0.998642 0.24897 -0.0434026 0.00873247 0.0129734
393 1 0.438664 0.0614912 0.31498 0.0773383 -0.0782613 -0.00120237
394 1 0.376972 0.997693 0.376827 -0.0160668 0.0613742 -0.0141231
395 1 0.4369 0.0630987 0.436902 0.0796632 -0.0796634 0.0796639
396 1 0.375962 0.998608 0.501356 0.00453409 0.0763229 -0.0787381
397 1 0.438467 0.061501 0.563449 -0.00609777 0.00611342 0.0148511
398 1 0.375299 0.999427 0.625532 -0.00121494 0.000974023 -0.00257447
399 1 0.437763 0.0622298 0.687776 0.000596924 -0.000420425 0.00156277
400 1 0.375134 0.999763 0.750023 0.00143086 -0.000734032 -0.000482377
401 1 0.437662 0.0623616 0.812426 0.000840496 -0.000397769 -0.0024969
402 1 0.3754 0.999521 0.874563 0.00166909 0.000768344 -3.99111e-05
403 1 0.437762 0.0622978 0.937244 0.00134053 -0.000733342 -0.00464578
404 1 0.375184 0.124985 0.999703 -0.0349292 0.0116437 0.00965902
405 1 0.438009 0.186477 0.0618083 0.00361305 0.00937878 0.0489752
406 1 0.375196 0.124113 0.124933 0.110528 0.0214823 -0.0308452
407 1 0.433369 0.192161 0.192048 0.202258 -0.132688 -0.193311
408 1 0.382205 0.11914 0.250251 -0.0506943 0.0269551 -0.0246913
409 1 0.447551 0.185014 0.315558 -0.0346282 -0.0701992 0.0505872
410 1 0.370083 0.129915 0.370086 0.25618 -0.25618 0.256181
411 1 0.438507 0.185021 0.438667 0.0782612 0.00120281 0.0773388
412 1 0.376824 0.123026 0.502308 -0.0141237 0.016067 -0.0613744
413 1 0.438308 0.187305 0.563099 -0.0110794 -0.00892662 0.0194506
414 1 0.375398 0.124533 0.625302 0.014437 -0.0141793 0.0302024
415 1 0.437598 0.187437 0.687618 0.00115604 0.000992252 0.00167959
416 1 0.375068 0.124885 0.750044 0.000321436 0.000145246 0.000535344
417 1 0.437553 0.187465 0.812481 0.000841858 0.000220837 -0.000148868
418 1 0.375139 0.124829 0.874818 0.00164051 -0.000111895 -0.00628455
419 1 0.438007 0.187137 0.937066 -0.000862247 0.0031828 -0.000607726
420 1 0.376189 0.249551 0.998843 -0.0454346 -0.0155677 0.0413707
421 1 0.437418 0.314081 0.0627437 0.0939099 0.0316202 -0.0799605
422 1 0.378418 0.250307 0.120356 -0.0540973 0.0890318 0.111308
423 1 0.447433 0.314931 0.185301 -0.0828007 0.0769783 -0.0597393
424 1 0.433543 0.309122 0.310026 0.222755 0.136271 0.0351063
425 1 0.380858 0.24975 0.382208 -0.0269547 0.0246917 -0.050694
426 1 0.438745 0.3137 0.438873 -0.0448309 -0.00142284 0.00387768
427 1 0.376317 0.250901 0.501324 -0.024783 -0.0132461 -0.0184415
428 1 0.43831 0.312976 0.563176 -0.0580422 0.00754955 -0.0414648
429 1 0.375193 0.249996 0.624929 0.0178954 0.0147066 0.051721
430 1 0.437521 0.312515 0.687607 -0.00246042 0.000348658 -0.00168212
431 1 0.374962 0.24995 0.75003 -0.000178933 0.000705746 0.00121156
432 1 0.437462 0.312497 0.812549 7.41062e-05 0.00105488 -0.000847747
433 1 0.375045 0.249982 0.875038 0.00692098 -0.00570704 -0.0134671
434 1 0.437719 0.312728 0.937481 0.0142483 0.00132752 -0.0323549
435 1 0.375196 0.375226 0.999824 0.0247381 0.018585 0.00604365
436 1 0.436889 0.436897 0.0628869 0.0327328 0.0575824 -0.0339967
437 1 0.371212 0.372125 0.130381 -0.031113 0.0752637 -0.0585188
438 1 0.439503 0.439218 0.185598 0.00725058 0.0467808 0.00551833
439 1 0.38154 0.38357 0.251137 -0.0835553 -0.00358274 -0.00369358
440 1 0.439235 0.439362 0.314451 0.0339595 -2.79761e-05 0.00853075
441 1 0.375885 0.375068 0.375198 -0.0214824 0.0308444 0.110528
442 1 0.438254 0.438157 0.438083 -0.0679598 -0.0908296 -0.032067
443 1 0.373788 0.373895 0.498985 0.0564474 0.0411464 0.0599255
444 1 0.437188 0.437195 0.562349 0.000681526 -0.000890198 -0.000792548
445 1 0.374854 0.374791 0.624822 0.0059769 0.00632154 0.0270052
446 1 0.437388 0.437383 0.687516 0.00106081 0.00100723 0.00473313