ITEM: TIMESTEP
0
ITEM: NUMBER OF ATOMS
1026
ITEM: BOX BOUNDS pp pp pp
0.0000000000000000e+00 2.2857118000000000e+01
0.0000000000000000e+00 2.2857118000000000e+01
0.0000000000000000e+00 2.2857118000000000e+01
ITEM: ATOMS id type xs ys zs fx fy fz
1 1 0.222823 0.218093 0.134409 -0.158792 -0.0321533 0.127113
2 1 0.285333 0.291781 0.14859 0.0224656 -0.319786 -0.0295068
3 1 0.219023 0.142613 0.211602 -0.00104233 0.117429 0.135679
4 1 0.148587 0.214665 0.20822 -0.0295053 -0.0224602 0.319785
5 1 0.357385 0.288399 0.219026 -0.117431 -0.135677 -0.00104395
6 1 0.281905 0.365592 0.222826 0.0321603 -0.127114 -0.158799
7 1 0.285427 0.142044 0.283783 -0.167459 0.131381 -0.0700867
8 1 0.357954 0.216218 0.285429 -0.131381 0.0700874 -0.167459
9 1 0.134406 0.277176 0.281908 0.127112 0.158795 0.032157
10 1 0.208217 0.351411 0.285336 0.319788 0.029509 0.0224625
11 1 0.28378 0.214572 0.357957 -0.0700871 0.167459 -0.131381
12 1 0.211599 0.280975 0.357388 0.135677 0.00104151 -0.11743
13 1 0.999885 2.30914e-05 5.05272e-05 0.00519876 0.00124838 -0.00192687
14 1 0.0632364 0.0633932 0.0633403 -0.0621761 -0.0721311 -0.0882079
15 1 0.999275 0.999159 0.124542 0.0719672 0.0749645 -0.0111513
16 1 0.0625824 0.0624129 0.185371 -0.101874 -0.116005 -0.026873
17 1 0.999983 0.999875 0.249788 0.00498133 0.0176686 -0.0059738
18 1 0.0616305 0.0617942 0.313645 0.0582346 0.003738 -0.0218626
19 1 0.999805 0.999714 0.375307 -0.026676 -0.0174368 0.00980596
20 1 0.0617561 0.0618368 0.438326 0.0948584 0.048261 -0.0839062
21 1 0.999664 0.999566 0.500389 0.00842598 0.00127398 -0.00569661
22 1 0.0626214 0.0624567 0.562597 -0.00300435 -0.00098953 0.00111001
23 1 0.999934 0.999846 0.625076 -0.00116713 -0.00195991 0.00266362
24 1 0.062404 0.0623684 0.687549 -0.000356581 -0.000641663 0.0030146
25 1 0.999788 0.999789 0.749856 -0.0012389 -0.0016824 0.000467854
26 1 0.0621763 0.0621951 0.812188 -0.00220671 -0.00261671 -0.00429051
27 1 0.999441 0.999494 0.874444 0.00262108 0.00135246 -0.00135135
28 1 0.0614376 0.061442 0.936439 0.00629414 0.00510721 -0.010368
29 1 0.998804 0.124164 0.998621 0.0819155 0.000602177 0.08557
30 1 0.061603 0.185256 0.0610216 -0.0214199 0.0123211 -0.0724257
31 1 0.999427 0.124527 0.124327 0.0300972 -0.0232359 -0.0265864
32 1 0.055654 0.187351 0.187099 -0.124421 -0.219633 -0.156058
33 1 0.998946 0.123702 0.250543 0.043342 0.0595153 0.0300715
34 1 0.0646863 0.189422 0.309617 -0.0331464 -0.0131547 -0.0750257
35 1 1.34053e-05 0.125128 0.374623 0.0095808 0.0391273 -0.00273908
36 1 0.0605826 0.185457 0.439273 0.0163784 0.00183824 0.00141761
37 1 0.999235 0.124165 0.500884 -0.0110446 -0.000829594 0.00658026
38 1 0.0615119 0.186808 0.563307 0.0482609 -0.0103474 -0.0293598
39 1 0.999582 0.124597 0.625451 0.00528289 -0.0024198 -0.00531915
40 1 0.0623566 0.187401 0.68761 0.000799539 -0.00107258 -0.00217935
41 1 0.999807 0.124907 0.749977 -0.000894872 -0.0018842 -0.00149957
42 1 0.0623405 0.187502 0.812391 -0.0024935 0.000350498 -0.00487213
43 1 0.99947 0.124765 0.874457 0.000225634 -4.94801e-06 1.05428e-05
44 1 0.0615747 0.187432 0.9367 0.0243132 -0.0119386 -0.0145877
45 1 0.999381 0.249967 0.999081 0.0239644 -0.00748856 0.043327
46 1 0.0610225 0.3142 0.0607702 0.0754866 -0.0300478 0.00799475
47 1 0.99942 0.250585 0.123212 -0.00073183 0.0351761 0.0800775
48 1 0.0662091 0.307701 0.189661 -0.209046 0.129508 -0.107657
49 1 0.998227 0.250625 0.251104 0.0714966 -0.0137618 -0.0497217
50 1 0.0503204 0.315088 0.316058 0.0346815 0.117359 0.0346527
51 1 0.997587 0.248561 0.377362 0.0493866 0.0226658 -0.0577686
52 1 0.0608725 0.314436 0.439 -0.0640696 -0.00494116 0.0429623
53 1 0.999048 0.249936 0.500969 0.0259904 0.000616385 -0.0325139
54 1 0.0617082 0.312517 0.563022 0.00491483 0.00849386 0.0137397
55 1 0.999571 0.249943 0.625408 -0.00188296 0.00244562 0.00143338
56 1 0.0623817 0.312536 0.687548 -0.00126459 -0.000836639 0.000709538
57 1 0.999836 0.250038 0.749976 -0.000592028 -0.000215515 -9.89349e-05
58 1 0.0623399 0.312668 0.812362 0.0016701 0.000936665 0.000592194
59 1 0.999514 0.250115 0.874504 -0.00181432 -0.00242601 -0.00137513
60 1 0.0613921 0.313302 0.936537 0.0609231 0.00794147 0.0368016
61 1 0.999224 0.375706 0.999212 -0.0112734 -0.000868684 -0.00777038
62 1 0.0612381 0.43876 0.0612409 0.106951 -0.106951 0.106951
63 1 0.000331081 0.374262 0.125368 -0.0179058 0.0484044 0.00172
64 1 0.0607674 0.438976 0.185801 0.00799468 -0.0754874 0.0300484
65 1 0.997952 0.376356 0.24849 0.0428095 3.8363e-05 0.0507988
66 1 0.0610187 0.438395 0.314745 -0.0724251 0.0214184 -0.0123216
67 1 0.997291 0.376998 0.377243 0.0150746 -0.0047672 -0.00355345
68 1 0.0633375 0.436762 0.436608 -0.0882071 0.0621749 0.07213
69 1 0.998694 0.375973 0.501277 0.0663819 0.00399096 -0.0606425
70 1 0.0617943 0.438253 0.563155 0.00238451 -0.00409415 0.0157546
71 1 0.999603 0.375259 0.625379 -0.000856891 -0.000675395 0.00108455
72 1 0.0623461 0.437696 0.687652 -0.000279433 -7.07638e-05 -7.92952e-05
73 1 0.999825 0.375149 0.74995 -0.000187905 0.0012278 0.000898882
74 1 0.06242 0.437628 0.812397 0.000470892 -3.16796e-05 -0.00248747
75 1 0.999466 0.375461 0.874459 0.00639547 0.000266169 0.00780008
76 1 0.0623882 0.437624 0.937263 0.00321379 -0.00430584 0.00672291
77 1 0.999256 0.500742 0.999259 0.0128766 -0.0128767 0.0128767
78 1 0.0623747 0.562738 0.062391 0.0043059 -0.00672303 0.00321389
79 1 0.999209 0.500775 0.124295 -0.00777008 0.0112732 0.00086889
80 1 0.0616518 0.563072 0.187105 0.0265636 -0.0208544 -0.00651159
81 1 0.999078 0.500617 0.250034 0.0433275 -0.0239647 0.00748863
82 1 0.0619673 0.562629 0.312691 -0.0192625 0.0353524 0.00101086
83 1 0.998619 0.501194 0.375837 0.0855697 -0.0819152 -0.000602207
84 1 0.0622944 0.562621 0.437735 -0.0123195 0.0345117 0.00877527
85 1 4.7712e-05 0.500113 0.499978 -0.00192666 -0.0051989 -0.00124852
86 1 0.0622334 0.562864 0.562841 -0.00730059 -0.00209933 -0.00107629
87 1 0.999689 0.500419 0.625364 0.0017628 -0.00254025 0.0014823
88 1 0.0623982 0.56271 0.687604 -0.000216371 -0.000383134 0.000509546
89 1 0.999852 0.500196 0.750003 0.000106404 -4.05105e-05 -0.000527026
90 1 0.0623091 0.562734 0.812285 -0.000362821 -0.00169456 0.00209574
91 1 0.999772 0.500224 0.874744 0.0011914 -0.00144309 0.000226356
92 1 0.0620981 0.562964 0.937007 0.00416035 -0.00332278 0.00229624
93 1 0.999774 0.625257 0.999775 0.00144319 -0.000226398 0.00119146
94 1 0.0623702 0.687604 0.0624228 3.17517e-05 0.00248741 0.000470949
95 1 0.999622 0.625383 0.124719 0.00333734 -0.0032845 -0.00248544
96 1 0.0623893 0.68758 0.187466 0.00125703 -0.00220728 -0.000162579
97 1 0.999703 0.625245 0.250034 -0.000548416 0.00181464 0.000404877
98 1 0.0624705 0.6875 0.312515 -0.000686503 0.000608964 3.02005e-05
99 1 0.999775 0.625229 0.375173 -0.00101305 -0.00146026 -0.000913139
100 1 0.0625268 0.687529 0.437483 -0.00131739 0.00120069 0.00043466
101 1 0.999939 0.625177 0.500101 -0.00219604 0.00451633 0.00144205
102 1 0.0624459 0.687553 0.562555 -0.00136023 0.000686478 8.68491e-05
103 1 0.999841 0.625196 0.625119 -0.00166592 -0.000853613 -0.000105245
104 1 0.062404 0.687543 0.687471 0.000484459 8.62456e-05 0.000649876
105 1 0.99983 0.625178 0.749926 0.000468077 -0.000971641 0.000838017
106 1 0.0623165 0.687627 0.812294 0.000696259 -0.0012264 0.000729637
107 1 0.999728 0.625271 0.874699 0.00212824 -0.00234873 0.00183053
108 1 0.0622037 0.687756 0.937179 0.000497442 -0.00303219 0.00208932
109 1 0.999802 0.749998 0.999855 4.0596e-05 0.000526949 0.000106426
110 1 0.0623018 0.812349 0.0623489 7.08122e-05 7.92149e-05 -0.000279419
111 1 0.999879 0.750037 0.124965 0.000718906 -0.000565419 -0.000918123
112 1 0.0624875 0.812482 0.187514 -0.000758731 -0.000186346 -0.000648041
113 1 0.999957 0.75001 0.250027 0.000388374 0.000639346 -0.000714564
114 1 0.0625185 0.812448 0.312543 0.00196863 0.00344253 -0.000471117
115 1 0.999984 0.749981 0.375037 0.000813935 0.00147593 0.000507648
116 1 0.0626095 0.812496 0.437392 -0.00126174 -0.00459952 0.000936264
117 1 4.08942e-05 0.750013 0.499958 -0.00121567 -0.000872972 0.000945781
118 1 0.0623747 0.812323 0.562562 0.000218744 0.00228101 -0.00183435
119 1 0.999898 0.749962 0.624997 0.000103145 0.000397255 -0.00029729
120 1 0.0623595 0.812357 0.687445 0.000349126 -4.14278e-05 -0.000135123
121 1 0.999819 0.749988 0.749862 0.00078029 -0.000648553 0.000352378
122 1 0.0622766 0.812358 0.812285 0.00106859 -0.00108678 -0.000407542
123 1 0.999731 0.750033 0.87475 0.000879186 -0.00119076 0.00104288
124 1 0.0622301 0.812337 0.93723 6.89299e-05 -0.00164957 -0.000604376
125 1 0.999579 0.874637 0.999692 0.00254007 -0.00148258 0.00176263
126 1 0.0617448 0.936846 0.0617971 0.00409392 -0.0157549 0.0023843
127 1 0.999731 0.874716 0.124916 0.000804391 0.00065279 -6.02678e-05
128 1 0.0620638 0.93719 0.187469 0.00845759 -0.0144321 -0.00706821
129 1 0.999816 0.874787 0.250034 -0.00102307 -0.00310123 -0.00410786
130 1 0.0618234 0.936902 0.312968 0.0596554 0.0570304 -0.00149638
131 1 0.999787 0.874717 0.375229 0.00671814 0.0089239 0.000322458
132 1 0.0628104 0.93766 0.437191 0.000327125 0.00125449 0.000635928
133 1 7.95957e-05 0.874969 0.499907 -0.00129262 -0.00188904 0.0013386
134 1 0.0623409 0.937242 0.562643 -0.00039757 -0.00244377 0.00380896
135 1 0.999892 0.874836 0.625002 -4.82867e-05 -0.00105409 0.00128842
136 1 0.0622732 0.937209 0.687574 0.000905927 0.000761089 -0.00225182
137 1 0.999755 0.874768 0.749856 0.000788429 -0.000297929 -0.000583527
138 1 0.0621853 0.93712 0.812184 0.000478266 -0.00104216 -0.00177172
139 1 0.999582 0.874684 0.874661 9.92236e-05 0.00167056 0.00270898
140 1 0.0618295 0.936844 0.936864 -0.00226295 0.00714665 0.00882484
141 1 0.124025 0.998724 0.998696 -0.00399096 0.0606429 0.0663825
142 1 0.185562 0.0610009 0.0608753 0.00494072 -0.0429629 -0.0640697
143 1 0.123582 0.998223 0.12332 0.0199114 0.0427567 0.00587456
144 1 0.185649 0.0530566 0.184878 -0.0839419 0.0417777 -0.0582078
145 1 0.123943 0.999215 0.251016 0.0327938 -0.00607017 -0.00509258
146 1 0.192117 0.0669788 0.307755 -0.178164 -0.251386 0.155742
147 1 0.12615 0.00102085 0.373785 -0.0471558 -0.0603036 0.0589556
148 1 0.186301 0.0612456 0.438636 0.000582185 0.0026198 -0.0462713
149 1 0.124603 0.999552 0.500351 -0.00577743 -0.0186712 0.0199829
150 1 0.186974 0.0614298 0.563318 -8.10709e-05 0.0483841 -0.0396868
151 1 0.124676 0.99953 0.625385 0.000445001 0.00495555 -0.0066146
152 1 0.187395 0.0622741 0.68762 0.000645152 0.00129444 -0.00267753
153 1 0.124847 0.99974 0.749941 -0.000629832 -0.00135848 -0.00173022
154 1 0.187404 0.0622127 0.812329 0.00188287 -0.00354066 -0.00498698
155 1 0.124613 0.999338 0.874383 0.00161542 0.000256277 -0.001318
156 1 0.187288 0.0611758 0.93645 -0.005486 0.0288957 -0.00313787
157 1 0.123 0.122758 0.997293 0.00476742 0.00355377 0.0150755
158 1 0.18491 0.183943 0.0503232 -0.11736 -0.0346536 0.0346823
159 1 0.131317 0.130148 0.128569 -0.252402 -0.180666 -0.15686
160 1 0.120072 0.119564 0.24932 0.117022 0.132693 -0.0111642
161 1 0.185244 0.183639 0.312157 0.114574 0.097048 -0.0717501
162 1 0.124701 0.124753 0.375765 -0.0208204 -0.0808113 -0.0464621
163 1 0.190935 0.190379 0.433155 -0.125012 -0.0714911 0.261572
164 1 0.125853 0.125529 0.499599 -0.0317245 -0.00970768 0.0267393
165 1 0.187437 0.187253 0.562503 -0.00942185 -0.0100639 -0.00265699
166 1 0.124963 0.124884 0.625018 -0.00534559 -0.00503989 0.0248212
167 1 0.187467 0.187414 0.68746 -0.00167844 -0.00146998 0.000120807
168 1 0.124887 0.124876 0.74996 -0.000857187 -0.000772727 -0.00239509
169 1 0.187364 0.187353 0.812354 -0.000441817 -0.000113155 0.0096399
170 1 0.124453 0.124435 0.87454 -0.0157741 -0.0157663 -0.0313689
171 1 0.186839 0.186667 0.935356 -0.00518189 -0.0121801 0.155784
172 1 0.123643 0.251511 0.997955 -3.81831e-05 -0.0507987 0.0428086
173 1 0.192298 0.31034 0.066212 -0.129507 0.107658 -0.209048
174 1 0.120623 0.250072 0.115528 0.0691348 0.041399 0.11575
175 1 0.185235 0.314764 0.185238 0.0151741 -0.0151755 0.0151753
176 1 0.116569 0.248682 0.381702 0.0410312 0.00917194 -0.0317312
177 1 0.184875 0.314349 0.446945 -0.0582075 0.0839411 -0.0417784
178 1 0.123384 0.248507 0.501206 0.0299157 0.0169902 -0.0130193
179 1 0.187055 0.31272 0.563733 -0.0102713 -0.000845366 -0.12693
180 1 0.124735 0.249814 0.624911 -0.0201907 -0.0124446 0.0536296
181 1 0.187417 0.312492 0.687536 0.000162402 -0.000882404 -0.00840719
182 1 0.12493 0.250006 0.749999 -0.00118384 0.000565778 -0.00193001
183 1 0.187487 0.312513 0.812596 -2.02378e-05 0.00324739 -0.00480774
184 1 0.124735 0.250242 0.874993 -0.0231266 0.0155035 -0.0532978
185 1 0.187653 0.312794 0.937711 -0.00104065 0.0167428 -0.0354816
186 1 0.125736 0.374633 0.000333901 -0.0484047 -0.00171923 -0.0179061
187 1 0.185798 0.439231 0.0610253 0.0300474 -0.00799496 0.0754862
188 1 0.12405 0.375948 0.124053 0.0351126 -0.0351135 0.035114
189 1 0.189658 0.433789 0.1923 -0.107656 0.209046 -0.129507
190 1 0.115525 0.379375 0.249929 0.115751 -0.0691367 -0.0413983
191 1 0.187096 0.444344 0.312651 -0.156058 0.124422 0.219633
192 1 0.128567 0.368681 0.369853 -0.156859 0.252398 0.180663
193 1 0.185368 0.437416 0.437588 -0.0268736 0.101873 0.116005
194 1 0.123317 0.376416 0.501778 0.00587488 -0.0199119 -0.0427563
195 1 0.187466 0.437935 0.562811 -0.00706825 -0.00845806 0.0144314
196 1 0.124674 0.375258 0.625135 -0.0142039 0.013026 0.0322995
197 1 0.187511 0.437511 0.687519 -0.000648057 0.000758745 0.000186284
198 1 0.124958 0.375059 0.75001 0.00060849 -0.000710157 -0.000820474
199 1 0.187463 0.437609 0.812421 -0.000162565 -0.00125697 0.00220728
200 1 0.12501 0.375129 0.875032 -0.00623947 0.00233676 -0.0241915
201 1 0.187102 0.438347 0.93693 -0.00651148 -0.0265642 0.0208551
202 1 0.124292 0.500789 0.999226 0.000868814 0.00777021 -0.0112733
203 1 0.186696 0.563464 0.0613949 -0.00794144 -0.0368014 0.0609228
204 1 0.125365 0.499667 0.125739 0.00172051 0.0179053 -0.0484038
205 1 0.187204 0.56229 0.187656 -0.0167427 0.0354818 -0.00104057
206 1 0.123209 0.500578 0.249416 0.0800777 0.000731563 -0.0351764
207 1 0.187365 0.563011 0.312445 -0.0162483 -0.03182 0.00864191
208 1 0.124324 0.500571 0.375474 -0.026587 -0.0300961 0.0232364
209 1 0.187269 0.56251 0.43778 -0.00243341 0.040974 0.0162222
210 1 0.124539 0.500723 0.500842 -0.0111514 -0.0719665 -0.0749639
211 1 0.187533 0.562696 0.562724 0.00168999 0.00378458 0.00390122
212 1 0.124913 0.500267 0.625285 -6.02788e-05 -0.000804539 -0.000652863
213 1 0.187505 0.562622 0.687591 -0.000337777 -0.000164201 -0.000506306
214 1 0.124963 0.500119 0.749964 -0.00091814 -0.000718841 0.000565387
215 1 0.187453 0.562669 0.812338 -0.000278728 8.6959e-05 -0.000622755
216 1 0.124716 0.500376 0.874618 -0.0024854 -0.00333737 0.00328452
217 1 0.187287 0.562997 0.937001 -0.000353245 -0.00179113 0.00167214
218 1 0.124537 0.625542 0.999469 -0.000266121 -0.00779993 0.00639534
219 1 0.18733 0.68764 0.0623427 -0.000936703 -0.000592156 0.00167004
220 1 0.124869 0.62497 0.125013 -0.00233672 0.0241912 -0.00623938
221 1 0.187485 0.687405 0.18749 -0.00324741 0.00480783 -2.02046e-05
222 1 0.124764 0.624878 0.249966 -0.0123197 0.0321454 -0.00897596
223 1 0.187532 0.687452 0.312423 -0.000942742 -0.000509838 0.000715074
224 1 0.124924 0.624921 0.375015 -0.0132366 0.0278941 0.0121452
225 1 0.187491 0.68746 0.437474 -0.0013572 0.00137278 0.000408433
226 1 0.124918 0.625128 0.500128 -0.000261789 -0.000652643 -0.000169901
227 1 0.187481 0.687503 0.562555 0.000124863 0.000379016 0.000201213
228 1 0.124968 0.625101 0.625087 -0.00040135 0.00157264 0.00179114
229 1 0.187472 0.687497 0.687489 -0.000212255 0.000154001 0.000135409
230 1 0.124929 0.625122 0.749935 -0.000119768 -8.99246e-05 -0.000169599
231 1 0.18742 0.687603 0.81231 0.000151755 -0.000952829 0.000353573
232 1 0.124801 0.625291 0.874671 0.000790511 -0.00242434 0.00164104
233 1 0.187353 0.687733 0.937194 0.000810211 0.000268971 -0.000463686
234 1 0.124849 0.750051 0.999828 -0.00122779 -0.000898895 -0.000187922
235 1 0.187462 0.812453 0.0623845 0.000836645 -0.000709577 -0.00126453
236 1 0.124939 0.749991 0.124961 0.000710147 0.000820445 0.000608535
237 1 0.187507 0.812465 0.18742 0.000882395 0.00840727 0.000162424
238 1 0.125026 0.750001 0.249985 -0.000150205 -0.000283176 -6.6611e-05
239 1 0.187625 0.812579 0.312422 -0.00188704 0.000745439 0.000741322
240 1 0.125085 0.749987 0.374923 -0.00104604 0.000208205 -9.17769e-05
241 1 0.187481 0.812405 0.437519 -0.00022805 0.00221744 -0.00247158
242 1 0.124984 0.749932 0.500002 -0.00112993 0.00106905 -0.00104265
243 1 0.18743 0.8123 0.562606 0.00133379 -0.000960014 0.000740261
244 1 0.124932 0.749919 0.625015 0.000477657 -0.000162453 0.000595977
245 1 0.187418 0.81232 0.687499 0.00043542 -8.13548e-05 -0.000702054
246 1 0.124885 0.749957 0.749882 0.000489173 -0.00041622 -7.06353e-05
247 1 0.187408 0.812347 0.812313 0.000499659 -0.00104712 -0.000923758
248 1 0.124829 0.750022 0.874753 0.000499534 -0.000431331 -0.000436525
249 1 0.187392 0.812329 0.937234 0.000663355 -0.000321473 -0.00128159
250 1 0.124739 0.874622 0.999606 0.000675445 -0.00108466 -0.00085692
251 1 0.187481 0.93698 0.061711 -0.00849398 -0.0137401 0.0049147
252 1 0.12474 0.874867 0.124677 -0.0130259 -0.0322995 -0.0142039
253 1 0.187278 0.936268 0.187058 0.000845255 0.126929 -0.0102712
254 1 0.12494 0.875173 0.250081 -0.0182461 -0.0533036 0.0115045
255 1 0.187766 0.937777 0.312299 -0.0135482 -0.00759187 0.00815316
256 1 0.125199 0.875195 0.37485 -0.00666196 -0.0276267 0.00594351
257 1 0.187038 0.936828 0.43831 -0.00681147 0.0462439 -0.0618605
258 1 0.124748 0.874637 0.500255 -0.00085497 0.00890057 -0.00806109
259 1 0.187382 0.937144 0.562768 -0.00130599 -0.00236065 0.00219163
260 1 0.124866 0.87476 0.625092 0.000273168 -0.000249296 -0.000204288
261 1 0.187396 0.937193 0.687617 0.00132034 -0.00111231 -8.15082e-05
262 1 0.124846 0.87475 0.749892 0.000859888 -0.00132033 -0.000561151
263 1 0.187409 0.937134 0.812231 0.000265489 -0.00196768 -0.00142847
264 1 0.124765 0.874669 0.874662 0.00174341 -0.00150406 -0.00150238
265 1 0.187349 0.936874 0.936902 0.00391948 -0.00348215 -0.00495108
266 1 0.250062 0.999032 0.99905 -0.000616478 0.0325142 0.0259906
267 1 0.314542 0.0607278 0.0605854 -0.00183892 -0.00141639 0.0163796
268 1 0.251491 0.998795 0.123387 -0.01699 0.0130192 0.0299157
269 1 0.309619 0.0668464 0.190938 0.0714915 -0.261573 -0.125012
270 1 0.250572 0.99895 0.249696 -0.00479605 -0.217719 -0.00552986
271 1 0.31532 0.0526986 0.314766 0.0569922 0.036867 0.0768878
272 1 0.24907 0.998779 0.376229 0.00923354 0.0159606 -0.022828
273 1 0.314895 0.0614729 0.438375 0.00110155 -0.0789041 0.08073
274 1 0.250201 0.999422 0.500477 0.000717829 0.017966 -0.0135769
275 1 0.312666 0.0615524 0.563116 0.0037405 0.0143299 0.0119011
276 1 0.24998 0.999502 0.625395 0.00269681 -0.000297043 0.000832057
277 1 0.31256 0.0622785 0.687602 -0.00033015 -0.000934035 0.000844204
278 1 0.249999 0.999752 0.749966 0.00114766 -0.00107752 -0.0013653
279 1 0.312636 0.0622323 0.812331 0.00359309 -0.000693788 -0.00358367
280 1 0.250119 0.999377 0.874451 -0.00176034 -0.00115952 -0.00191003
281 1 0.313375 0.0612859 0.936518 0.00648617 0.0282079 0.00406641
282 1 0.251437 0.122639 0.997589 -0.0226663 0.057769 0.0493866
283 1 0.310576 0.190384 0.0646892 0.0131565 0.0750263 -0.0331471
284 1 0.251316 0.118299 0.116572 -0.00917241 0.0317309 0.0410316
285 1 0.316359 0.187844 0.185247 -0.0970473 0.0717502 0.114574
286 1 0.250212 0.118066 0.380731 -0.0243705 0.0422823 -0.0212759
287 1 0.314763 0.184678 0.447303 0.076887 -0.0569915 -0.0368671
288 1 0.248913 0.123233 0.501239 0.00917581 0.0402839 -0.00610984
289 1 0.312876 0.186891 0.56394 -0.000710126 -0.00587681 -0.128902
290 1 0.249904 0.1246 0.624987 -0.0132321 -0.017238 0.0520608
291 1 0.312535 0.187342 0.687588 -0.000766951 0.00125085 -0.00965276
292 1 0.249981 0.124846 0.749993 0.00105169 -0.00131066 -0.00173592
293 1 0.312462 0.187419 0.81255 0.00490237 -0.000367792 -0.00427507
294 1 0.250129 0.124487 0.874809 0.0221297 -0.0190216 -0.0421897
295 1 0.312765 0.187266 0.937315 0.00858564 -0.00289233 -0.029413
296 1 0.249374 0.248897 0.99823 0.0137616 0.049722 0.0714964
297 1 0.312648 0.312903 0.0556569 0.219633 0.156058 -0.124422
298 1 0.250046 0.249952 0.250049 -0.0409391 0.0409411 -0.0409422
299 1 0.312154 0.314754 0.316362 -0.0717497 -0.114574 -0.0970464
300 1 0.307752 0.307881 0.433022 0.155741 0.178164 0.251385
301 1 0.249693 0.249426 0.501051 -0.00552991 0.00479601 0.217721
302 1 0.312296 0.312232 0.562225 0.00815299 0.0135483 0.00759218
303 1 0.249939 0.249844 0.624858 -0.00139391 0.00190565 0.0711343
304 1 0.31242 0.312373 0.687422 0.00074132 0.00188701 -0.000745472
305 1 0.249941 0.249927 0.750014 0.000733234 0.00081233 -0.00170276
306 1 0.31242 0.312467 0.812549 0.000715109 0.000942795 0.000509815
307 1 0.249895 0.249883 0.8751 0.0119752 0.0114165 -0.0642467
308 1 0.312442 0.312633 0.93699 0.00864192 0.0162484 0.03182
309 1 0.249413 0.376789 0.999423 -0.0351763 -0.0800775 -0.000732251
310 1 0.314742 0.43898 0.0616058 -0.0123209 0.0724255 -0.0214188
311 1 0.249926 0.384473 0.120626 -0.0413984 -0.115749 0.0691349
312 1 0.316055 0.449678 0.184913 0.0346535 -0.0346824 -0.11736
313 1 0.309614 0.435312 0.310579 -0.0750275 0.0331445 0.013154
314 1 0.249317 0.379926 0.380437 -0.0111662 -0.117022 -0.132692
315 1 0.313642 0.438368 0.438207 -0.0218626 -0.0582343 -0.00373778
316 1 0.251013 0.376056 0.500786 -0.00509291 -0.032794 0.00607057
317 1 0.312965 0.438175 0.5631 -0.00149649 -0.0596555 -0.0570305
318 1 0.250079 0.375058 0.624828 0.0115045 0.018246 0.0533036
319 1 0.31254 0.43748 0.687553 -0.000471088 -0.00196862 -0.00344258
320 1 0.249983 0.374972 0.75 -6.66169e-05 0.000150252 0.000283176
321 1 0.312512 0.437528 0.812501 3.02506e-05 0.000686509 -0.000608964
322 1 0.249964 0.375234 0.875123 -0.00897598 0.0123198 -0.0321457
323 1 0.312688 0.438031 0.937372 0.00101081 0.0192624 -0.0353524
324 1 0.250031 0.50092 0.999384 0.0074885 -0.0433268 0.0239641
325 1 0.312566 0.563301 0.0615775 0.0119385 0.0145878 0.0243132
326 1 0.248488 0.502046 0.123645 0.0507987 -0.0428088 -3.83182e-05
327 1 0.313332 0.564645 0.186842 0.0121804 -0.155783 -0.00518215
328 1 0.251102 0.501772 0.249377 -0.0497211 -0.071499 0.013761
329 1 0.312733 0.562686 0.312768 0.00289221 0.0294133 0.00858584
330 1 0.25054 0.501052 0.376299 0.0300719 -0.0433425 -0.0595157
331 1 0.312881 0.562991 0.4381 -0.00259359 -0.0103882 -0.0119951
332 1 0.249786 0.500016 0.500126 -0.00597389 -0.00498121 -0.0176686
333 1 0.312528 0.562568 0.562596 0.00137128 0.00340155 0.0031541
334 1 0.250032 0.500182 0.625214 -0.00410791 0.00102302 0.00310116
335 1 0.312557 0.562566 0.68758 -0.00157656 0.000571444 0.000868251
336 1 0.250024 0.500042 0.749991 -0.000714518 -0.000388399 -0.000639358
337 1 0.312561 0.562638 0.812358 -0.00127617 0.000264542 -2.23456e-05
338 1 0.250031 0.500296 0.874756 0.000404935 0.000548506 -0.00181475
339 1 0.312565 0.563064 0.936952 -0.00408854 0.00180818 -8.43837e-05
340 1 0.249883 0.625497 0.999517 0.00242596 0.00137519 -0.00181446
341 1 0.312496 0.68761 0.0623433 -0.00035061 0.00487222 -0.00249352
342 1 0.249757 0.625008 0.124738 -0.0155035 0.0532975 -0.0231265
343 1 0.312645 0.687647 0.187367 0.000113108 -0.00963972 -0.000441808
344 1 0.250115 0.624901 0.249898 -0.0114164 0.0642469 0.0119752
345 1 0.312579 0.687451 0.312465 0.00036778 0.00427512 0.00490232
346 1 0.250003 0.624945 0.375101 0.00861032 0.0260569 0.0131184
347 1 0.312531 0.687537 0.43757 -0.000188626 -0.000456023 0.000440162
348 1 0.249945 0.625063 0.500104 -0.000901503 0.00390994 0.00156432
349 1 0.312501 0.687476 0.562582 6.30432e-05 0.00192344 0.000655605
350 1 0.250041 0.625053 0.625088 -0.000228012 -0.000280229 -0.000421656
351 1 0.312534 0.68747 0.687519 0.000108977 -0.000101652 -0.000295162
352 1 0.250012 0.625076 0.749952 -0.000300873 -0.000319058 -0.000348899
353 1 0.312536 0.68758 0.81233 5.14098e-05 -0.000737462 -5.67558e-05
354 1 0.249949 0.625281 0.874684 -0.000395174 -0.00152622 0.00096475
355 1 0.312527 0.687728 0.937194 -3.11719e-05 0.000154391 -0.000793353
356 1 0.249961 0.750025 0.999839 0.000215493 9.89363e-05 -0.000591983
357 1 0.312597 0.812391 0.0623594 0.00107253 0.00217937 0.000799557
358 1 0.249992 0.750002 0.124933 -0.000565781 0.00192998 -0.00118387
359 1 0.312584 0.812541 0.18747 0.00146994 -0.000120742 -0.00167838
360 1 0.250072 0.749987 0.249944 -0.000812349 0.00170275 0.000733254
361 1 0.312656 0.812413 0.312538 -0.00125089 0.00965285 -0.000766876
362 1 0.250044 0.749981 0.37497 -0.00100486 -0.000873425 0.000328811
363 1 0.312553 0.812403 0.437592 -0.000773763 -0.00131439 0.000839985
364 1 0.249987 0.749922 0.500037 -9.57394e-06 0.000789394 -0.000213724
365 1 0.312527 0.812249 0.562698 6.59936e-05 0.000693304 -0.000187205
366 1 0.24998 0.749883 0.625058 0.000294794 0.00040554 -7.81672e-05
367 1 0.312525 0.812297 0.68755 0.000553187 -0.000242605 -0.00102403
368 1 0.24998 0.749934 0.749913 0.000347711 -0.000574109 -0.000338477
369 1 0.312556 0.812338 0.812336 0.000669137 -0.000963657 -0.000799823
370 1 0.249967 0.75001 0.874772 0.000366866 -0.000672591 -0.000656678
371 1 0.312587 0.812322 0.937239 5.14249e-06 -0.00118307 -0.00122323
372 1 0.250055 0.874593 0.999574 -0.00244556 -0.00143336 -0.00188294
373 1 0.31319 0.936695 0.0615147 0.0103472 0.0293601 0.0482612
374 1 0.250185 0.87509 0.124738 0.0124445 -0.0536295 -0.0201906
375 1 0.312745 0.937498 0.18744 0.0100637 0.00265765 -0.00942163
376 1 0.250155 0.875143 0.249941 -0.00190574 -0.0711339 -0.00139391
377 1 0.313107 0.936061 0.312879 0.00587658 0.128902 -0.000710033
378 1 0.249994 0.875096 0.375176 -0.014316 -0.0520593 0.0177307
379 1 0.312674 0.936977 0.438245 0.00755577 -0.0207182 -0.00944101
380 1 0.249988 0.874631 0.500316 0.00330896 -0.00206991 0.0010308
381 1 0.312576 0.936935 0.563001 -0.0028147 -0.00127567 0.000764406
382 1 0.249938 0.87469 0.625193 0.000828989 0.000302344 -0.00137115
383 1 0.312569 0.937159 0.687677 2.28509e-05 -0.000731965 -0.00156397
384 1 0.249982 0.874738 0.749937 0.000534432 -0.000976406 -0.00141902
385 1 0.312637 0.937143 0.812259 -9.68938e-05 -0.00140237 -0.00183637
386 1 0.250018 0.874674 0.874684 0.0010455 -0.00136119 -0.00087408
387 1 0.31276 0.936949 0.936984 0.00358257 -0.00481807 -0.00392556
388 1 0.375833 0.999117 0.999238 0.000829216 -0.00657988 -0.0110443
389 1 0.438161 0.0616749 0.0617589 -0.0482614 0.0839066 0.0948586
390 1 0.374469 0.000401935 0.125856 0.00970777 -0.0267394 -0.0317246
391 1 0.438753 0.0613649 0.186304 -0.00262035 0.0462718 0.000582352
392 1 0.376765 0.998763 0.248916 -0.0402839 0.00610959 0.00917581
393 1 0.438525 0.0616265 0.314898 0.0789041 -0.0807299 0.00110218
394 1 0.37684 0.997844 0.376697 -0.0141103 0.0639181 -0.0125565
395 1 0.436772 0.0632263 0.436775 0.0849951 -0.0849954 0.0849956
396 1 0.375917 0.998663 0.501301 0.00243734 0.0818554 -0.0840785
397 1 0.438395 0.0615729 0.563357 -0.00508896 0.0052553 0.015691
398 1 0.375283 0.999465 0.625485 -0.00146553 0.00087166 -0.00281942
399 1 0.437758 0.0622395 0.687755 5.11929e-05 0.000160041 0.000582329
400 1 0.375149 0.999756 0.749995 0.00189074 -0.000794822 -0.0010904
401 1 0.43767 0.0623681 0.812413 0.000204484 0.000635366 -0.00235037
402 1 0.375476 0.999454 0.87449 0.00177125 0.00326053 0.00288599
403 1 0.437678 0.0623985 0.937316 -0.00229062 0.000565615 -0.0010874
404 1 0.37487 0.125378 1.6214e-05 -0.0391274 0.00273868 0.00958084
405 1 0.438204 0.186356 0.0616333 -0.00373807 0.0218627 0.0582344
406 1 0.375246 0.124236 0.124704 0.0808113 0.0464617 -0.020821
407 1 0.43302 0.192246 0.19212 0.251385 -0.15574 -0.178163
408 1 0.381932 0.11927 0.250215 -0.0422822 0.0212759 -0.0243695
409 1 0.4473 0.185235 0.315323 -0.0368669 -0.0768884 0.0569929
410 1 0.369831 0.130167 0.369834 0.263665 -0.263666 0.263666
411 1 0.438372 0.185103 0.438528 0.0807298 -0.0011018 0.0789045
412 1 0.376694 0.123159 0.502157 -0.0125571 0.0141104 -0.0639182
413 1 0.438242 0.187324 0.563024 -0.00944127 -0.00755578 0.0207181
414 1 0.375386 0.124547 0.625275 0.0132314 -0.0132667 0.0297933
415 1 0.437589 0.187445 0.687598 0.000839928 0.000773708 0.0013143
416 1 0.375076 0.124888 0.750031 0.000469236 0.000540176 0.000150604
417 1 0.437567 0.187468 0.812464 0.000440114 0.000188592 0.000456066
418 1 0.375166 0.124851 0.874841 0.00142692 -0.00100539 -0.0124703
419 1 0.438097 0.187118 0.93701 -0.0119955 0.00259359 0.0103887
420 1 0.376297 0.249458 0.998949 -0.0595161 -0.0300715 0.0433432
421 1 0.437585 0.31463 0.0625852 0.116005 0.0268731 -0.101874
422 1 0.380434 0.250682 0.120075 -0.132695 0.0111666 0.117025
423 1 0.446942 0.315123 0.185652 -0.0417778 0.0582078 -0.0839421
424 1 0.433152 0.309063 0.309622 0.261573 0.125012 0.0714913
425 1 0.380728 0.249786 0.381935 -0.0212757 0.0243698 -0.042282
426 1 0.438633 0.313697 0.438755 -0.0462714 -0.000582223 -0.00262028
427 1 0.376226 0.250928 0.501222 -0.0228284 -0.00923373 -0.0159605
428 1 0.438307 0.31296 0.563173 -0.0618605 0.00681138 -0.0462439
429 1 0.375174 0.250004 0.624905 0.0177306 0.014316 0.0520593
430 1 0.437516 0.312518 0.687596 -0.00247165 0.000228002 -0.00221756
431 1 0.374967 0.249955 0.75002 0.000328779 0.00100483 0.000873376
432 1 0.437471 0.312507 0.812541 0.000408442 0.00135718 -0.00137278
433 1 0.375098 0.249995 0.875056 0.0131185 -0.00861032 -0.0260571
434 1 0.437777 0.312729 0.937491 0.0162224 0.00243332 -0.0409743
435 1 0.375471 0.375674 0.99943 0.0232364 0.026587 0.0300969
436 1 0.436605 0.436661 0.0632393 0.0721313 0.0882084 -0.0621763
437 1 0.369851 0.371432 0.13132 0.180665 0.156861 -0.2524
438 1 0.438997 0.439126 0.185565 0.0429626 0.0640701 0.00494045
439 1 0.381699 0.38343 0.251319 -0.0317303 -0.0410315 -0.00917207
440 1 0.43927 0.439416 0.314545 0.00141724 -0.0163791 -0.00183842
441 1 0.375762 0.375297 0.375248 -0.0464617 0.0208206 0.0808114
442 1 0.438323 0.438242 0.438164 -0.083906 -0.0948586 -0.0482612
443 1 0.373782 0.373848 0.49898 0.0589553 0.0471555 0.0603035
444 1 0.437189 0.437188 0.562341 0.000635841 -0.000327233 -0.00125449
445 1 0.374847 0.374799 0.624806 0.00594352 0.006662 0.0276267
446 1 0.437389 0.437389 0.687505 0.000936301 0.00126175 0.00459946
447 1 0.37492 0.374913 0.750014 -9.17229e-05 0.00104599 -0.000208187