ITEM: TIMESTEP
0
ITEM: NUMBER OF ATOMS
1026
ITEM: BOX BOUNDS pp pp pp
0.0000000000000000e+00 2.2857118000000000e+01
0.0000000000000000e+00 2.2857118000000000e+01
0.0000000000000000e+00 2.2857118000000000e+01
ITEM: ATOMS id type xs ys zs fx fy fz
1 1 0.240957 0.235199 0.124615 0.243817 -0.107748 -0.000295434
2 1 0.29164 0.310952 0.163042 0.0544962 0.297697 0.210263
3 1 0.22262 0.136098 0.214115 0.191227 0.036354 0.11616
4 1 0.16304 0.208358 0.189049 0.210263 -0.0544905 -0.297698
5 1 0.3639 0.285886 0.222623 -0.0363628 -0.116156 0.191225
6 1 0.264799 0.375387 0.24096 0.107753 0.000288439 0.243794
7 1 0.287248 0.140932 0.286133 -0.131725 0.121676 -0.0444049
8 1 0.359066 0.213868 0.287251 -0.121674 0.044402 -0.131727
9 1 0.124612 0.259041 0.264802 -0.000289143 -0.243803 0.107756
10 1 0.189046 0.336958 0.291644 -0.297692 -0.210268 0.0544949
11 1 0.286131 0.21275 0.359069 -0.0444003 0.131722 -0.121677
12 1 0.214112 0.277378 0.363904 0.116155 -0.191229 -0.0363434
13 1 0.999595 0.999828 0.999759 -0.00814545 -0.00674246 -0.00740742
14 1 0.0621843 0.0625293 0.0623652 0.00354477 0.0232803 -0.000510654
15 1 0.999793 0.999656 0.124835 -0.00672517 -0.00348264 -0.00976318
16 1 0.0625505 0.0622933 0.186803 -0.0917878 -0.105729 -0.00755369
17 1 3.15174e-05 0.999969 0.250023 -0.0213885 -0.00576892 0.00516015
18 1 0.0621012 0.0622898 0.313364 0.0261163 0.00541373 0.00572793
19 1 0.999894 0.999811 0.375252 -0.0214073 -0.002163 0.00479411
20 1 0.0620537 0.0620561 0.438119 0.080078 0.0231098 -0.05315
21 1 0.999776 0.999659 0.500308 0.0102927 0.00179711 -0.00461112
22 1 0.0625516 0.0625111 0.562588 -0.00412415 -0.00262945 0.00452797
23 1 0.999928 0.999884 0.625068 -0.00128702 -0.000817858 0.0023815
24 1 0.0624122 0.0623972 0.687567 -0.00035045 -0.000506526 0.00315739
25 1 0.999826 0.999832 0.749893 -0.000315389 -0.000731658 0.00152443
26 1 0.0622724 0.0622853 0.812278 -0.000476375 -0.000929149 -0.000566692
27 1 0.999528 0.999581 0.874508 0.0032879 0.00163022 0.00036834
28 1 0.0616791 0.061669 0.936612 0.00836501 0.00598224 -0.00539628
29 1 0.998793 0.124107 0.998739 0.0307252 0.00395042 0.0316748
30 1 0.0604255 0.185489 0.060374 0.0673739 0.0491392 0.0131874
31 1 0.000231315 0.125109 0.125188 -0.0537535 -0.0259573 -0.0109169
32 1 0.0598717 0.189688 0.188365 -0.0137369 -0.129055 -0.121329
33 1 0.999141 0.124279 0.250044 0.0462063 0.0575901 0.0103164
34 1 0.0609316 0.186802 0.313499 -0.0277809 0.0796125 0.00510681
35 1 0.99942 0.124575 0.375583 -0.0187321 -0.00237469 0.00738123
36 1 0.0615826 0.186567 0.438344 -0.00554769 0.0084824 0.023205
37 1 0.999562 0.124565 0.500562 -0.00983091 0.00306363 -0.00493698
38 1 0.0615926 0.186875 0.563386 0.0461989 0.000401727 -0.0428725
39 1 0.999602 0.124638 0.62543 0.00515049 4.97862e-05 -0.00599068
40 1 0.0623674 0.187409 0.687635 0.00155634 -0.00117012 -0.00257942
41 1 0.999833 0.12491 0.749997 1.63691e-05 -0.00193558 -0.000422851
42 1 0.0623633 0.18749 0.812426 -0.00120811 -0.00122293 -0.00497309
43 1 0.999577 0.124798 0.874558 0.000600653 -0.00119173 -0.000989352
44 1 0.0618029 0.187399 0.93695 -0.00358885 -0.0181773 -0.0380629
45 1 0.998768 0.249955 0.998491 0.0385713 -0.00175625 0.0563819
46 1 0.0596128 0.315007 0.0593191 0.0292842 -0.0157356 -0.0541154
47 1 0.99914 0.250141 0.123086 0.0170537 0.0172935 0.0541973
48 1 0.063278 0.309955 0.186173 0.0264057 0.0635216 0.0495149
49 1 0.000174509 0.250837 0.251064 -0.0949937 0.0177913 -0.0122422
50 1 0.0577747 0.316563 0.314544 0.185775 -0.0117599 0.0483737
51 1 0.998554 0.250299 0.376509 0.0631924 0.00141835 -0.0422071
52 1 0.0613358 0.314118 0.43944 -0.0504698 -0.00372184 0.0101821
53 1 0.999419 0.24994 0.500745 0.00141048 -8.44686e-05 -0.0124464
54 1 0.061624 0.312563 0.563449 0.0284299 0.00432561 -0.0345986
55 1 0.999547 0.249914 0.62545 -0.00326125 0.00162284 0.00371453
56 1 0.0623781 0.312539 0.687598 -0.00204402 -0.00105717 0.000955416
57 1 0.999839 0.25002 0.749991 -0.000438835 -0.000941861 0.000446499
58 1 0.0623377 0.312642 0.812363 0.000619085 0.000696383 -0.00118145
59 1 0.999563 0.250055 0.87453 -0.00209116 -0.00332196 -0.000428521
60 1 0.0615602 0.313152 0.936611 0.0111455 0.00973084 -0.00609165
61 1 0.998511 0.376204 0.99845 -0.00309426 -0.00696029 0.00363716
62 1 0.0607847 0.439214 0.0607874 0.0107876 -0.0107885 0.0107866
63 1 0.999017 0.375201 0.124337 0.0357225 0.0150998 0.036094
64 1 0.0593163 0.440386 0.184994 -0.0541143 -0.0292826 0.0157358
65 1 0.997945 0.376098 0.248824 0.128713 0.0281576 0.011014
66 1 0.0603712 0.439573 0.314512 0.0131883 -0.0673752 -0.0491385
67 1 0.9982 0.376484 0.376622 0.0310528 -0.0185432 -0.0126409
68 1 0.0623624 0.437814 0.437472 -0.000509173 -0.00354528 -0.0232809
69 1 0.999095 0.375906 0.501086 0.00934865 0.00284048 -0.013053
70 1 0.0615325 0.438611 0.563591 0.0108701 -0.00677421 -0.00229688
71 1 0.999525 0.375288 0.625471 -0.00246585 -0.00024322 0.00365778
72 1 0.0623183 0.437744 0.687686 -0.00225275 0.00262128 0.00282069
73 1 0.999808 0.375148 0.749954 -0.000945972 0.000656135 0.00138476
74 1 0.0623696 0.437685 0.812331 -0.00122618 0.00157951 -0.00312986
75 1 0.999461 0.375405 0.874432 -0.00146562 0.00176781 -0.00312871
76 1 0.0620062 0.438039 0.936771 -0.0062099 0.00643174 -0.00827863
77 1 0.998983 0.501016 0.998985 0.00170276 -0.00170294 0.00170263
78 1 0.0619594 0.56323 0.0620089 -0.00643154 0.00827857 -0.00620984
79 1 0.998447 0.501487 0.123797 0.00363778 0.00309361 0.00696082
80 1 0.0616469 0.563091 0.187241 -0.0142952 0.0254112 -0.0163088
81 1 0.998489 0.50123 0.250046 0.0563815 -0.0385709 0.00175612
82 1 0.0620313 0.562759 0.31283 -0.0176889 0.0303869 0.013309
83 1 0.998737 0.501205 0.375895 0.0316732 -0.0307236 -0.0039505
84 1 0.0625551 0.562583 0.437587 -0.000119285 0.00971136 -0.00259438
85 1 0.999757 0.500403 0.500173 -0.00740706 0.00814537 0.00674217
86 1 0.0623789 0.562726 0.562685 -0.00355762 0.00170833 0.00178668
87 1 0.999547 0.500572 0.625488 0.00271204 -0.00100318 -0.00133991
88 1 0.0623888 0.562759 0.687614 0.000642661 0.000656306 0.0003977
89 1 0.999807 0.500246 0.749978 -0.00145573 0.00150905 -0.00041167
90 1 0.0623006 0.562796 0.81223 -0.00126046 0.00131018 -0.00092194
91 1 0.999601 0.500405 0.874524 -0.00214961 0.00189558 -0.00487722
92 1 0.0618476 0.563313 0.936673 0.00395607 -0.00188159 0.000938883
93 1 0.999594 0.625477 0.999604 -0.00189551 0.0048772 -0.00214954
94 1 0.0623135 0.68767 0.0623723 -0.0015795 0.00312986 -0.00122623
95 1 0.999553 0.625453 0.124751 -0.00349894 0.00548999 -0.00389296
96 1 0.0623489 0.687607 0.187478 -0.00043411 0.000405335 -0.000279824
97 1 0.999665 0.625301 0.250079 -0.00266069 0.00368283 0.000523658
98 1 0.0624646 0.687521 0.312542 4.38996e-05 0.00107195 0.00163535
99 1 0.999788 0.625251 0.375212 0.00144072 -0.000821226 0.00200702
100 1 0.062592 0.68749 0.437448 -0.000173072 0.00133355 0.000550388
101 1 0.999994 0.625147 0.500063 4.23465e-05 0.00140125 0.00109909
102 1 0.0624669 0.68753 0.562532 -0.000489219 -0.000473122 -0.000842801
103 1 0.999887 0.625164 0.62506 -0.00090013 -5.02391e-05 -0.000113296
104 1 0.0624105 0.687553 0.687447 0.000331734 -9.38085e-05 -0.000187699
105 1 0.999814 0.625225 0.749893 0.000140215 0.000528114 -1.94527e-05
106 1 0.0623068 0.687689 0.812239 0.000962575 0.00021724 -0.000435166
107 1 0.99961 0.625431 0.874545 0.00113475 -0.000126312 -0.000229459
108 1 0.0622066 0.687799 0.937142 -0.000177317 -8.52379e-05 -0.00047228
109 1 0.999753 0.750023 0.99981 -0.00150901 0.000411703 -0.00145569
110 1 0.0622539 0.812315 0.0623211 -0.00262116 -0.00282049 -0.00225262
111 1 0.999841 0.750043 0.124965 -0.000834693 -0.0007831 -0.000479191
112 1 0.0624443 0.81243 0.187548 -0.0022831 -0.00101507 0.00123512
113 1 0.999925 0.750005 0.250057 -0.000565964 0.000343536 0.000277286
114 1 0.062506 0.812418 0.312573 0.00281426 0.0031282 0.000913373
115 1 0.999982 0.749976 0.375062 0.000978462 0.000488066 0.00178619
116 1 0.0626195 0.812473 0.43739 -0.00080045 -0.00454734 0.00109215
117 1 6.0499e-05 0.749993 0.499947 -0.000529142 -0.00138348 0.000845501
118 1 0.0623705 0.812309 0.562568 7.53957e-05 0.00168269 -0.00178886
119 1 0.999906 0.749959 0.624985 0.000184258 0.000193252 -0.000612432
120 1 0.062362 0.81237 0.687455 0.000308136 -0.000171915 6.37648e-05
121 1 0.999819 0.750022 0.74984 0.000829551 8.41832e-05 -0.000367585
122 1 0.0622937 0.812392 0.812294 0.0011023 -0.000159939 -0.000278271
123 1 0.999719 0.750062 0.874712 0.000682527 -0.000349049 -0.000442995
124 1 0.0622191 0.81232 0.937189 0.000869094 -0.00142905 -0.00151885
125 1 0.999427 0.874513 0.99955 0.00100305 0.00133968 0.00271193
126 1 0.061387 0.93641 0.0615352 0.0067738 0.00229607 0.0108697
127 1 0.999617 0.874633 0.124926 -0.00128266 -0.00194563 0.000105762
128 1 0.0617804 0.936714 0.187646 0.0376432 0.0432905 -0.00112605
129 1 0.999703 0.874696 0.25015 -0.00426377 -0.00515824 -0.00243353
130 1 0.0617925 0.936817 0.313037 0.0564822 0.0595349 -0.00356142
131 1 0.999767 0.874698 0.375256 0.00524004 0.00729457 0.000743128
132 1 0.0627576 0.937614 0.43721 -0.000812204 -0.00173835 0.00212085
133 1 7.03729e-05 0.874954 0.499912 -0.0014738 -0.00201996 0.00105386
134 1 0.0622857 0.937201 0.562694 -0.00170795 -0.00204337 0.00322505
135 1 0.99988 0.874833 0.625019 -0.000451867 -0.000854108 0.0010536
136 1 0.0622666 0.937227 0.687595 0.000679984 0.0011066 -0.00158297
137 1 0.999775 0.874805 0.749876 0.000764487 0.000250153 -0.000158367
138 1 0.0622305 0.937185 0.812246 0.000879031 -8.98734e-05 0.000169381
139 1 0.999615 0.87473 0.874676 0.000766712 0.00156788 0.00139797
140 1 0.0619057 0.936936 0.936954 0.000307664 0.00356218 0.00258286
141 1 0.124092 0.998915 0.999098 -0.00284026 0.0130544 0.00935062
142 1 0.18588 0.0605613 0.0613386 0.00372245 -0.0101798 -0.0504691
143 1 0.122688 0.997515 0.122864 0.0048073 -0.065442 0.0135597
144 1 0.183873 0.0512862 0.184215 -0.0528651 -0.0661911 -0.0864279
145 1 0.123681 0.999322 0.251346 0.0482474 -0.0520963 0.00206019
146 1 0.191828 0.0661704 0.308488 -0.226589 -0.163177 0.117039
147 1 0.125957 0.000852746 0.373892 -0.0237792 -0.0444157 0.0418641
148 1 0.18616 0.060905 0.438997 -0.000134102 -0.0282538 -0.0223518
149 1 0.124469 0.999414 0.50049 -0.00736248 -0.0107844 0.0146203
150 1 0.18686 0.0614429 0.563302 -0.0030026 0.0312727 -0.017676
151 1 0.124635 0.999535 0.625405 0.000322418 0.00559756 -0.006037
152 1 0.187378 0.0622688 0.687643 -0.000917937 0.000950389 -0.000674534
153 1 0.124845 0.999767 0.74998 -0.000543119 -0.000336452 -0.00010512
154 1 0.187369 0.0622595 0.812401 0.000694343 -0.00129468 -0.00268923
155 1 0.124679 0.999471 0.874543 0.00214004 0.000874576 0.0018933
156 1 0.187141 0.0615462 0.936875 -0.00558245 -0.00401429 -0.0211277
157 1 0.123514 0.123379 0.998203 0.0185429 0.012641 0.0310528
158 1 0.183436 0.185457 0.0577773 0.0117566 -0.0483734 0.185792
159 1 0.126826 0.125165 0.126887 -0.0726484 0.062354 -0.00744996
160 1 0.120883 0.1239 0.24991 0.110633 0.310811 -0.0648818
161 1 0.186296 0.184102 0.311249 0.155484 0.00778593 0.028134
162 1 0.125404 0.124908 0.375875 -0.00717951 -0.0953042 -0.0623679
163 1 0.19059 0.189275 0.434173 -0.156234 0.0658669 0.15446
164 1 0.125554 0.12557 0.499711 -0.00674945 0.000769898 0.0176424
165 1 0.187542 0.187332 0.562493 -0.0101251 -0.00341637 -0.00301723
166 1 0.124984 0.124905 0.625059 -0.00445101 -0.00319483 0.020263
167 1 0.187494 0.187435 0.68747 -0.00125181 -0.000830478 -0.000757855
168 1 0.124919 0.124915 0.749986 0.000441062 0.000515016 0.000638995
169 1 0.187372 0.187403 0.812491 4.50739e-06 0.00104422 0.00063328
170 1 0.124659 0.124695 0.874745 -0.00759193 -0.00785928 -0.0153495
171 1 0.186938 0.187076 0.936992 -0.00200889 -0.00521796 -0.0134296
172 1 0.1239 0.251177 0.997948 -0.0281588 -0.0110146 0.128715
173 1 0.190044 0.313828 0.0632808 -0.0635199 -0.049512 0.0264068
174 1 0.119111 0.252957 0.113375 0.0342109 0.101142 -0.0197614
175 1 0.183123 0.316875 0.183126 0.107194 -0.107198 0.107208
176 1 0.118433 0.251023 0.377581 0.0152431 0.0557335 -0.232881
177 1 0.184212 0.316125 0.448715 -0.0864276 0.0528624 0.0661962
178 1 0.123352 0.248599 0.501125 0.0687697 0.0302054 0.00346778
179 1 0.187161 0.312765 0.563957 -0.0105219 0.00487652 -0.192345
180 1 0.124775 0.249828 0.624939 -0.0173545 -0.0157334 0.0569398
181 1 0.187443 0.312504 0.687554 0.00181129 -0.00179525 -0.00855907
182 1 0.124943 0.250003 0.749991 0.00010729 -0.000851752 0.00103269
183 1 0.187478 0.312528 0.812576 0.000856824 0.00173172 -0.00500831
184 1 0.124807 0.250182 0.874905 -0.00544752 0.00415969 -0.0118524
185 1 0.187653 0.312795 0.937776 0.0144807 0.0145665 -0.0617183
186 1 0.124798 0.375664 0.99902 -0.0150995 -0.0360943 0.0357247
187 1 0.184991 0.440682 0.0596155 0.0157358 0.0541154 0.0292807
188 1 0.12223 0.377768 0.122233 0.0645412 -0.0645439 0.0645447
189 1 0.18617 0.43672 0.190046 0.049515 -0.0263959 -0.0635263
190 1 0.113373 0.380887 0.247044 -0.0197501 -0.0342149 -0.101136
191 1 0.188362 0.440127 0.310313 -0.121332 0.0137362 0.129053
192 1 0.126884 0.373173 0.374836 -0.00744234 0.0726326 -0.0623699
193 1 0.1868 0.437448 0.437708 -0.00755385 0.0917868 0.105728
194 1 0.122861 0.377311 0.502486 0.0135594 -0.00480724 0.0654436
195 1 0.187643 0.438218 0.563287 -0.00112631 -0.0376443 -0.0432917
196 1 0.124682 0.375339 0.625245 -0.0141506 0.0163369 0.0315492
197 1 0.187545 0.437554 0.687571 0.00123517 0.00228318 0.00101517
198 1 0.124954 0.375078 0.750004 -1.39707e-05 0.000344514 -0.000123285
199 1 0.187475 0.437649 0.812394 -0.000279812 0.000434069 -0.000405192
200 1 0.124957 0.375192 0.874867 -0.00172516 0.00114832 -0.0110872
201 1 0.187238 0.438351 0.93691 -0.0163088 0.0142949 -0.0254105
202 1 0.123794 0.501552 0.998514 0.00696069 -0.00363725 -0.00309357
203 1 0.186846 0.56339 0.0615629 -0.00973068 0.00609317 0.0111433
204 1 0.124334 0.500981 0.1248 0.0360948 -0.0357244 -0.0150985
205 1 0.187203 0.562226 0.187656 -0.0145662 0.0617189 0.0144804
206 1 0.123083 0.500859 0.24986 0.054199 -0.0170585 -0.0172937
207 1 0.187628 0.56236 0.312084 -0.00880189 0.0146014 -0.000114312
208 1 0.125185 0.499767 0.374893 -0.0109173 0.0537554 0.0259578
209 1 0.187318 0.562567 0.437666 -0.00137402 0.00979378 0.00336947
210 1 0.124833 0.500205 0.500345 -0.00976366 0.00672685 0.00348435
211 1 0.187536 0.562602 0.562612 0.00134245 0.000479198 -0.000466732
212 1 0.124923 0.500381 0.625368 0.000105745 0.00128258 0.00194558
213 1 0.187528 0.562662 0.687604 6.53961e-05 0.00113033 6.35416e-05
214 1 0.124962 0.500157 0.749958 -0.000479216 0.000834725 0.000783182
215 1 0.187475 0.562719 0.812301 -0.000213949 0.00141365 -0.00171154
216 1 0.124748 0.500445 0.874548 -0.00389306 0.003499 -0.00549003
217 1 0.187265 0.563263 0.936753 0.00114002 0.000423886 -0.000679228
218 1 0.124594 0.62557 0.999464 -0.00176775 0.00312888 -0.00146576
219 1 0.187356 0.687638 0.0623405 -0.000696381 0.00118169 0.000618932
220 1 0.124806 0.625134 0.124959 -0.00114829 0.0110864 -0.0017251
221 1 0.18747 0.687425 0.187481 -0.00173169 0.00500846 0.000856855
222 1 0.124762 0.62502 0.249971 0.00354891 0.00139678 -0.00120803
223 1 0.187586 0.687397 0.312375 -6.30249e-05 0.00106337 -0.000112567
224 1 0.125086 0.624878 0.374886 0.000259089 0.0070827 0.00131993
225 1 0.187521 0.687442 0.437456 -0.000185481 -0.000315862 -0.0010258
226 1 0.124967 0.625082 0.500097 0.00128098 -0.00259545 -0.00243876
227 1 0.1875 0.687473 0.562531 0.000571651 -0.000599239 -0.000395439
228 1 0.124985 0.625081 0.625048 -0.000109755 0.000156137 -5.64755e-05
229 1 0.187479 0.687502 0.687476 0.000182717 -4.23871e-05 -0.000367537
230 1 0.124937 0.625162 0.749913 1.93312e-05 0.000815683 -0.000422135
231 1 0.187443 0.687646 0.81228 0.000652722 0.00014293 -0.000450401
232 1 0.124784 0.625415 0.874558 0.001602 7.58267e-05 -0.000651276
233 1 0.187387 0.687745 0.937188 0.000802297 0.00119097 -0.00124014
234 1 0.124851 0.750047 0.999811 -0.000656101 -0.0013847 -0.000946014
235 1 0.187459 0.812403 0.0623808 0.00105712 -0.000955348 -0.00204392
236 1 0.12492 0.749997 0.124957 -0.00034452 0.000123285 -1.39565e-05
237 1 0.187494 0.812447 0.187446 0.00179521 0.00855921 0.0018113
238 1 0.125024 0.750008 0.250004 0.000333625 -0.0014587 0.000864
239 1 0.187657 0.812573 0.312417 -0.00125385 0.000437352 0.000510183
240 1 0.125124 0.749967 0.374905 -2.78797e-05 -0.000355931 4.64118e-05
241 1 0.187484 0.812379 0.437534 -0.00105375 0.000521819 -0.00215962
242 1 0.124994 0.749911 0.499998 -0.00108979 -3.0788e-05 -0.00127715
243 1 0.187414 0.812263 0.562634 0.00102642 -0.00144083 0.000834131
244 1 0.124934 0.749908 0.625014 0.000609621 -0.000705167 0.000277463
245 1 0.187417 0.812326 0.68752 0.000337999 -0.00026479 -0.000250164
246 1 0.124895 0.749983 0.749874 0.000634028 8.37193e-05 -0.00035221
247 1 0.187421 0.812379 0.812338 0.000670541 -0.00022595 -0.000233466
248 1 0.124846 0.750041 0.874737 0.00068946 -0.000142286 -0.000837376
249 1 0.187413 0.81232 0.937224 0.000666415 -0.000458188 -0.00122088
250 1 0.12471 0.87453 0.999528 0.00024315 -0.00365792 -0.00246592
251 1 0.187436 0.936552 0.0616267 -0.00432578 0.0345972 0.028429
252 1 0.12466 0.874756 0.124684 -0.0163369 -0.0315497 -0.0141505
253 1 0.187233 0.936044 0.187164 -0.00487615 0.192343 -0.0105215
254 1 0.124923 0.875146 0.250153 -0.016661 -0.0567909 0.0173042
255 1 0.187893 0.93781 0.312258 -0.0145571 -0.00845409 -0.00181408
256 1 0.125227 0.875161 0.374851 -0.00561553 -0.0256985 0.00520798
257 1 0.186978 0.936801 0.438345 -0.0100406 0.0273552 -0.0465869
258 1 0.124725 0.874608 0.500275 -0.00113547 0.00724028 -0.0072984
259 1 0.187332 0.937076 0.562847 -0.00360187 -0.00582907 0.00537658
260 1 0.124847 0.874743 0.625125 -0.000283323 -0.000941373 0.000522325
261 1 0.187367 0.937186 0.687664 0.00108076 -0.000984321 0.000887572
262 1 0.124852 0.874779 0.749932 0.000879362 -0.000618098 0.000379229
263 1 0.187417 0.937206 0.812319 9.88685e-05 -0.000442671 0.000418293
264 1 0.124797 0.874726 0.874712 0.00129028 -0.000315587 -0.000527068
265 1 0.187359 0.937009 0.937058 0.00212331 5.91337e-05 -0.00100058
266 1 0.250058 0.999256 0.999422 8.42147e-05 0.0124476 0.0014117
267 1 0.313431 0.0616566 0.0615853 -0.00848343 -0.0232042 -0.00554599
268 1 0.2514 0.998876 0.123355 -0.0302044 -0.00346841 0.0687685
269 1 0.310724 0.0658276 0.190593 -0.065862 -0.154462 -0.156235
270 1 0.250554 0.000179466 0.249598 -0.0381899 -0.103999 -0.0443333
271 1 0.316329 0.0513883 0.315691 0.0309667 0.0101402 0.0476513
272 1 0.249116 0.998377 0.37661 0.0204231 0.0314572 -0.0356336
273 1 0.315131 0.0609347 0.438893 -0.00370257 -0.0778277 0.0811046
274 1 0.250209 0.999152 0.500747 -0.00501679 0.0242488 -0.0183381
275 1 0.31272 0.0612965 0.563411 0.00860741 0.0210365 0.0060272
276 1 0.249912 0.999445 0.625473 0.00159356 -0.00123623 0.001599
277 1 0.312553 0.0622574 0.687656 -0.000889284 -0.00269844 0.00293524
278 1 0.249972 0.999777 0.750024 0.000227664 -0.00042682 0.000413526
279 1 0.312535 0.0623012 0.812424 0.00016195 0.000258112 -0.000193044
280 1 0.250028 0.999578 0.874675 -0.0012331 0.00172071 0.00245075
281 1 0.312771 0.061867 0.93707 -0.000917492 -0.00220579 -0.0175887
282 1 0.249699 0.123492 0.998556 -0.00141861 0.0422069 0.063193
283 1 0.313196 0.186502 0.0609344 -0.0796116 -0.00510426 -0.0277812
284 1 0.248975 0.12242 0.118435 -0.0557337 0.232879 0.0152401
285 1 0.315896 0.188752 0.186299 -0.00779286 -0.0281248 0.155493
286 1 0.25026 0.117113 0.381537 -0.0363031 0.0683661 -0.0153521
287 1 0.315689 0.183669 0.448613 0.0476514 -0.030968 -0.0101372
288 1 0.248966 0.122785 0.501677 0.0225489 0.0537264 -0.0184799
289 1 0.312816 0.186943 0.564063 0.000360049 -0.00746286 -0.168038
290 1 0.249904 0.12455 0.62505 -0.0165092 -0.0164494 0.0483502
291 1 0.312526 0.187342 0.687606 -0.00167366 0.00179882 -0.00949172
292 1 0.249946 0.124858 0.750007 -0.00071792 -0.000195117 0.00169027
293 1 0.312415 0.187409 0.812564 0.000860851 -2.31808e-05 -0.00107531
294 1 0.249892 0.124654 0.874862 0.00234482 -0.000719227 -0.00379297
295 1 0.312406 0.187226 0.937445 0.00353663 -0.000200612 -0.0178869
296 1 0.249162 0.248937 0.000177261 -0.0177913 0.0122435 -0.0949919
297 1 0.31031 0.311636 0.0598745 0.129056 0.121331 -0.0137395
298 1 0.250317 0.249681 0.25032 -0.0962709 0.0962787 -0.0962834
299 1 0.311247 0.313702 0.315899 0.0281257 -0.155487 -0.00779177
300 1 0.308486 0.308171 0.433831 0.117036 0.22659 0.163174
301 1 0.249595 0.249444 0.499822 -0.0443358 0.0381916 0.103992
302 1 0.312255 0.312105 0.562191 -0.00181416 0.014557 0.00845469
303 1 0.249956 0.249841 0.62475 -0.00103888 0.00123776 0.0823563
304 1 0.312414 0.312341 0.687428 0.000510223 0.00125384 -0.000437217
305 1 0.249931 0.249921 0.750014 -4.55938e-05 0.000167172 0.00033612
306 1 0.312373 0.312413 0.812604 -0.000112584 6.29964e-05 -0.00106334
307 1 0.2498 0.249871 0.875163 -0.000764327 0.00122867 -0.0133661
308 1 0.312082 0.31237 0.937641 -0.000114435 0.00880219 -0.0146017
309 1 0.249857 0.376915 0.999142 -0.0172941 -0.0541978 0.0170545
310 1 0.31451 0.439627 0.0604283 -0.0491383 -0.0131871 0.0673725
311 1 0.247041 0.386626 0.119114 -0.101141 0.0197631 0.0342073
312 1 0.314541 0.442224 0.183438 0.0483732 -0.185789 0.0117577
313 1 0.313496 0.439067 0.313199 0.00509874 0.0277762 -0.0796128
314 1 0.249907 0.379116 0.376101 -0.0648804 -0.110632 -0.310808
315 1 0.313362 0.437897 0.437711 0.00572838 -0.0261148 -0.00541336
316 1 0.251343 0.376318 0.500679 0.00205896 -0.0482476 0.0520965
317 1 0.313034 0.438206 0.563185 -0.0035613 -0.0564816 -0.059534
318 1 0.250151 0.375075 0.624855 0.0173043 0.0166608 0.0567907
319 1 0.31257 0.437492 0.687583 0.000913438 -0.00281429 -0.00312812
320 1 0.250001 0.374975 0.749993 0.000864013 -0.000333658 0.00145874
321 1 0.31254 0.437534 0.81248 0.00163541 -4.39266e-05 -0.00107188
322 1 0.249968 0.375236 0.874981 -0.00120804 -0.00354908 -0.00139702
323 1 0.312828 0.437967 0.937242 0.0133092 0.0176893 -0.0303875
324 1 0.250043 0.50151 0.998771 0.00175609 -0.0563826 0.0385727
325 1 0.312599 0.563051 0.0618057 0.0181772 0.038064 -0.00358977
326 1 0.248821 0.502053 0.123903 0.0110123 -0.128719 -0.0281579
327 1 0.312922 0.563009 0.186941 0.00521859 0.013433 -0.00200854
328 1 0.251061 0.499824 0.249164 -0.0122409 0.0949921 -0.0177916
329 1 0.312772 0.562556 0.312408 0.000200404 0.0178869 0.00353679
330 1 0.250041 0.500857 0.375722 0.0103173 -0.0462054 -0.05759
331 1 0.312752 0.562754 0.437782 -0.00281067 0.00408137 8.31434e-05
332 1 0.25002 0.499967 0.500032 0.00516036 0.021389 0.00576932
333 1 0.312569 0.562572 0.56257 0.00166786 0.00141121 -0.000206058
334 1 0.250147 0.500296 0.625305 -0.00243361 0.00426376 0.00515824
335 1 0.312605 0.562611 0.68761 -0.00107787 0.00151689 0.000755234
336 1 0.250054 0.500073 0.749996 0.000277355 0.000565976 -0.000343471
337 1 0.312597 0.562661 0.812343 0.000181766 0.0010321 -0.000863188
338 1 0.250076 0.500334 0.8747 0.0005238 0.00266079 -0.00368287
339 1 0.312713 0.56317 0.936835 -0.00104395 0.0035345 -0.00149051
340 1 0.249943 0.625471 0.999565 0.00332195 0.000428434 -0.00209116
341 1 0.312508 0.687575 0.062366 0.00122296 0.00497316 -0.00120816
342 1 0.249816 0.625096 0.124809 -0.00415953 0.0118505 -0.00544707
343 1 0.312595 0.68751 0.187375 -0.00104423 -0.000632988 4.59435e-06
344 1 0.250127 0.624838 0.249803 -0.0012286 0.0133657 -0.000764364
345 1 0.31259 0.687437 0.312418 2.31424e-05 0.00107533 0.000860807
346 1 0.250041 0.624948 0.374965 0.000339647 -0.00164742 -0.002459
347 1 0.312542 0.687481 0.437519 0.000184356 -0.000996409 -0.000567925
348 1 0.249994 0.625008 0.50004 0.00115265 0.00123326 0.000477928
349 1 0.312511 0.68745 0.562565 0.00039307 0.000238585 -0.000114159
350 1 0.250038 0.625034 0.625054 0.000410809 -0.000713679 -0.00087983
351 1 0.312538 0.687469 0.687512 0.000501092 -0.000153301 -0.000264642
352 1 0.250034 0.625104 0.749944 0.000314884 0.000711298 -0.000447421
353 1 0.312562 0.687612 0.812316 0.000340944 2.17278e-05 -0.000433392
354 1 0.250006 0.625351 0.874624 0.000773742 0.000145986 -0.000492689
355 1 0.312554 0.687713 0.937216 0.00138964 0.000491321 -0.000460381
356 1 0.249979 0.750011 0.999841 0.000941827 -0.000446461 -0.000438864
357 1 0.312589 0.812366 0.0623702 0.00117006 0.00257944 0.00155636
358 1 0.249995 0.75001 0.124946 0.000851704 -0.00103271 0.000107301
359 1 0.312563 0.812531 0.187497 0.000830396 0.000757951 -0.00125178
360 1 0.250077 0.749987 0.249934 -0.000167201 -0.000336099 -4.55961e-05
361 1 0.312657 0.812395 0.312529 -0.00179894 0.00949198 -0.00167361
362 1 0.250055 0.749962 0.374961 -0.000413997 -0.00176945 -0.00041916
363 1 0.312572 0.812352 0.437612 -0.000672277 -0.00337136 0.00229362
364 1 0.25 0.749889 0.500034 0.000222812 -0.000310601 -0.000302167
365 1 0.312528 0.812201 0.562734 0.000144317 -0.00070686 0.000604856
366 1 0.249981 0.749868 0.625066 0.000283346 -0.000416203 1.94976e-05
367 1 0.312523 0.812295 0.687581 0.000387193 -0.000546193 -0.000168921
368 1 0.24999 0.749955 0.749917 0.000551042 -0.000213609 -0.000321689
369 1 0.312552 0.81237 0.812376 0.000401118 -0.000192959 0.000100439
370 1 0.24999 0.750019 0.874775 0.000686914 -0.000409141 -0.000628268
371 1 0.312599 0.812318 0.937244 -0.000376101 -0.000787343 -0.00069686
372 1 0.250085 0.874551 0.999549 -0.00162282 -0.00371444 -0.00326118
373 1 0.313123 0.936615 0.0615954 -0.000401503 0.042872 0.0461989
374 1 0.25017 0.875062 0.124777 0.0157333 -0.0569396 -0.0173545
375 1 0.312667 0.937508 0.187544 0.00341647 0.00301709 -0.0101251
376 1 0.250157 0.875252 0.249959 -0.00123789 -0.082356 -0.00103886
377 1 0.313055 0.935938 0.312819 0.00746277 0.168037 0.000360252
378 1 0.250007 0.875031 0.375229 -0.016566 -0.0495986 0.0167173
379 1 0.312725 0.936699 0.438482 0.0128405 -0.014928 -0.0154306
380 1 0.249947 0.874547 0.500391 0.00262957 -0.0031544 0.00250336
381 1 0.312623 0.936828 0.563117 -0.00218746 -0.00427294 0.00378727
382 1 0.249929 0.87466 0.625238 -3.42187e-06 -0.000529802 -0.000238586
383 1 0.312546 0.937142 0.687741 -6.091e-05 -0.00108741 0.000332874
384 1 0.249974 0.874764 0.749988 0.000281311 -0.000375255 0.000154803
385 1 0.312578 0.937231 0.812367 -0.00038799 0.000393371 0.000791802
386 1 0.250008 0.874741 0.874755 0.000555016 6.77189e-05 0.000465142
387 1 0.312678 0.937089 0.93712 0.000969521 0.000568072 -9.26804e-05
388 1 0.375434 0.999439 0.999565 -0.00306383 0.00493732 -0.0098306
389 1 0.437942 0.0618825 0.0620565 -0.0231102 0.0531499 0.080078
390 1 0.374429 0.000290382 0.125557 -0.000769323 -0.0176424 -0.00674984
391 1 0.439093 0.0610042 0.186163 0.0282534 0.0223512 -0.00013443
392 1 0.377213 0.998324 0.248969 -0.0537255 0.0184793 0.0225489
393 1 0.439064 0.0611078 0.315133 0.0778277 -0.0811045 -0.00370192
394 1 0.377357 0.997266 0.377206 -0.0133924 0.0346252 -0.0120948
395 1 0.437287 0.0627116 0.437289 0.0585945 -0.0585947 0.0585952
396 1 0.376051 0.998523 0.501442 0.010686 0.0519879 -0.0547038
397 1 0.43864 0.0613259 0.56368 -0.00627998 0.00640657 0.0156917
398 1 0.375325 0.999352 0.625622 -0.000311369 -0.000457281 -0.000281158
399 1 0.437765 0.0622191 0.68781 0.00158277 -0.00179902 0.00461951
400 1 0.375109 0.999775 0.750072 0.000325337 -0.000389027 0.00113272
401 1 0.437623 0.0623657 0.812471 -0.00045552 -0.000313523 -1.71992e-05
402 1 0.37522 0.999674 0.87473 -0.00298724 0.00210223 0.0027782
403 1 0.43781 0.0621688 0.937193 -0.00180264 0.0010565 -0.00224238
404 1 0.375423 0.124418 0.999423 0.00237402 -0.007381 -0.0187316
405 1 0.437709 0.186637 0.0621039 -0.0054128 -0.00572844 0.0261149
406 1 0.37509 0.124126 0.125407 0.0953054 0.0623669 -0.00718118
407 1 0.433828 0.191513 0.191831 0.163175 -0.117038 -0.226589
408 1 0.382885 0.118464 0.250262 -0.0683662 0.0153537 -0.0363025
409 1 0.44861 0.18431 0.316332 -0.0101409 -0.0476509 0.030968
410 1 0.371146 0.128853 0.371148 0.236402 -0.236403 0.236405
411 1 0.438891 0.184868 0.439066 0.0811045 0.00370237 0.0778282
412 1 0.377204 0.122641 0.502735 -0.0120958 0.0133929 -0.0346263
413 1 0.438479 0.187274 0.563303 -0.0154307 -0.0128406 0.0149279
414 1 0.375399 0.124526 0.625339 0.0161705 -0.0160049 0.0293172
415 1 0.437609 0.187427 0.687649 0.00229363 0.000672185 0.00337133
416 1 0.375053 0.124881 0.750064 -4.65475e-05 -0.000128906 0.00166422
417 1 0.437516 0.187456 0.81252 -0.000567908 -0.000184457 0.00099635
418 1 0.375044 0.124838 0.874895 0.000946522 -0.00107072 -0.000905161
419 1 0.43778 0.187246 0.937247 8.32384e-05 0.00281066 -0.00408139
420 1 0.375719 0.249957 0.999144 -0.0575927 -0.0103175 0.0462082
421 1 0.437705 0.313198 0.0625533 0.105728 0.00755375 -0.0917883
422 1 0.376098 0.250091 0.120886 -0.310809 0.064879 0.110634
423 1 0.448712 0.315786 0.183876 0.0661858 0.0864292 -0.0528667
424 1 0.434171 0.309408 0.310726 0.154465 0.156235 -0.0658596
425 1 0.381535 0.249739 0.382888 -0.0153537 0.036303 -0.068366
426 1 0.438994 0.313838 0.439096 -0.0223497 0.000134284 0.0282527
427 1 0.376608 0.250882 0.501624 -0.0356351 -0.0204229 -0.0314574
428 1 0.438343 0.31302 0.5632 -0.0465857 0.0100404 -0.0273541
429 1 0.375226 0.249991 0.62497 0.016717 0.016566 0.0495982
430 1 0.437531 0.312515 0.687622 -0.00215962 0.00105375 -0.000521803
431 1 0.374958 0.249944 0.750039 -0.00041919 0.000413924 0.00176941
432 1 0.437453 0.312477 0.812559 -0.00102579 0.000185478 0.000315836
433 1 0.374962 0.249957 0.875053 -0.00245912 -0.000339725 0.00164749
434 1 0.437664 0.31268 0.937434 0.00336987 0.0013742 -0.0097944
435 1 0.37489 0.374813 0.000234103 0.0259578 0.0109169 -0.0537541
436 1 0.437469 0.437636 0.0621871 -0.02328 0.000510626 0.00354388
437 1 0.374833 0.373114 0.126829 -0.0623656 0.00745074 -0.0726363
438 1 0.439437 0.438662 0.185883 0.0101815 0.0504698 0.00371973
439 1 0.377578 0.381566 0.248978 -0.232868 -0.0152425 -0.0557285
440 1 0.438342 0.438416 0.313434 0.023204 0.00554709 -0.00848239
441 1 0.375873 0.374594 0.375093 -0.062367 0.00717972 0.0953048
442 1 0.438116 0.437945 0.437945 -0.0531492 -0.0800776 -0.0231105
443 1 0.37389 0.374042 0.499148 0.0418621 0.0237782 0.0444152
444 1 0.437207 0.437241 0.562387 0.00212089 0.000812318 0.00173849
445 1 0.374848 0.374771 0.62484 0.0052079 0.0056155 0.0256983
446 1 0.437387 0.437379 0.687528 0.00109221 0.000800435 0.0045473
447 1 0.374902 0.374874 0.750034 4.64438e-05 2.78626e-05 0.000355956