ITEM: TIMESTEP
0
ITEM: NUMBER OF ATOMS
1026
ITEM: BOX BOUNDS pp pp pp
0.0000000000000000e+00 2.2857118000000000e+01
0.0000000000000000e+00 2.2857118000000000e+01
0.0000000000000000e+00 2.2857118000000000e+01
ITEM: ATOMS id type xs ys zs fx fy fz
1 1 0.244227 0.240783 0.122606 0.107036 0.235202 -0.0344224
2 1 0.29442 0.314491 0.168427 0.0394181 0.148961 0.32462
3 1 0.223179 0.132574 0.216758 0.205425 -0.210318 0.191835
4 1 0.168424 0.205578 0.18551 0.324616 -0.0394174 -0.148962
5 1 0.367424 0.283243 0.223182 0.210324 -0.191844 0.205426
6 1 0.259215 0.377395 0.24423 -0.235235 0.0344249 0.107035
7 1 0.288097 0.140763 0.287288 -0.113841 0.0780178 -0.0362383
8 1 0.359236 0.212713 0.2881 -0.0780171 0.036234 -0.113845
9 1 0.122603 0.255771 0.259218 -0.0344339 -0.107037 -0.235227
10 1 0.185507 0.331574 0.294423 -0.14894 -0.324608 0.0394007
11 1 0.287285 0.211901 0.359238 -0.036235 0.113841 -0.0780219
12 1 0.216756 0.276819 0.367427 0.191848 -0.205426 0.21034
13 1 0.999513 0.999775 0.999659 -0.00691618 -0.00446563 -0.00549322
14 1 0.0619365 0.0623877 0.0620983 0.0057997 0.0235009 0.00664806
15 1 0.999803 0.999663 0.12484 -0.0173402 -0.0138393 -0.0142755
16 1 0.0624202 0.0620612 0.186999 -0.0809774 -0.0931975 -0.0150317
17 1 4.09893e-05 0.999991 0.250103 -0.0261933 -0.0107746 0.00795622
18 1 0.0623364 0.0624735 0.313223 0.00640396 0.0081201 0.0107813
19 1 0.999944 0.999895 0.375216 -0.0178162 0.00302625 0.00183848
20 1 0.0622499 0.0622117 0.43794 0.0715808 0.0239946 -0.048668
21 1 0.999842 0.999731 0.500239 0.0104501 0.00380543 -0.00594838
22 1 0.0625339 0.0625409 0.562566 -0.00440127 -0.00185354 0.00446824
23 1 0.999928 0.999901 0.625056 -0.00139016 -9.47779e-05 0.00165005
24 1 0.0624124 0.0624062 0.687562 -0.00036912 -0.000405423 0.00309093
25 1 0.999832 0.999841 0.749896 -8.01389e-05 -0.000550756 0.00184659
26 1 0.0622823 0.0622934 0.812286 0.000188509 -0.000550118 -7.00046e-06
27 1 0.999565 0.999619 0.874542 0.00313479 0.00179338 0.00100115
28 1 0.0617808 0.0617736 0.936703 0.00810834 0.00639063 -0.00156399
29 1 0.998878 0.124211 0.998839 0.023614 0.0078552 0.0240459
30 1 0.0605067 0.185901 0.0605451 0.0812052 0.0467567 0.0284844
31 1 0.000227676 0.125097 0.125163 -0.0658365 -0.0281123 -0.0179443
32 1 0.0605877 0.18963 0.187684 0.0993381 -0.0586905 -0.1204
33 1 0.999544 0.124744 0.249902 0.00357134 0.0124307 0.0041613
34 1 0.0609835 0.186835 0.3134 -0.0107304 0.0956185 0.00816861
35 1 0.999532 0.124672 0.375573 -0.00821329 0.00159652 6.76515e-05
36 1 0.0620246 0.186968 0.437921 -0.00804642 0.00689145 0.00759211
37 1 0.999717 0.124714 0.500373 -0.00719939 0.00499286 -0.00877553
38 1 0.0615927 0.186883 0.563386 0.0446039 0.00284923 -0.0451333
39 1 0.999604 0.124647 0.625411 0.00532223 0.000968931 -0.00664676
40 1 0.0623616 0.187406 0.687633 0.00185012 -0.00154524 -0.00290146
41 1 0.999831 0.124906 0.749993 4.30796e-05 -0.0023201 -0.000399353
42 1 0.0623477 0.187479 0.812408 -0.00158606 -0.00169351 -0.00483586
43 1 0.999603 0.124801 0.874581 0.000950426 -0.000924017 -0.000534059
44 1 0.0618516 0.187378 0.936991 -0.00793046 -0.0180007 -0.0400876
45 1 0.998721 0.249945 0.998519 0.0338709 0.000515446 0.0495737
46 1 0.0594666 0.31498 0.0592215 0.0122982 -0.0159269 -0.0362329
47 1 0.998807 0.250244 0.123186 0.0462637 0.0102529 0.0459328
48 1 0.0618498 0.311512 0.185786 -0.0770445 0.150935 0.0690839
49 1 0.999781 0.25089 0.250806 -0.0341048 0.0116763 -0.0169035
50 1 0.0595077 0.316345 0.313794 0.00828025 -0.0424068 0.00710358
51 1 0.998963 0.25057 0.37608 0.0567252 -0.000753087 -0.0389457
52 1 0.0615194 0.313935 0.439295 -0.0388653 0.00766487 0.0109781
53 1 0.999566 0.249947 0.500575 -0.00678897 -0.0033675 -0.00424188
54 1 0.0615195 0.312554 0.563593 0.0377218 0.00371472 -0.0462905
55 1 0.999523 0.24989 0.625461 -0.00404809 0.00102013 0.0042273
56 1 0.062364 0.312538 0.687609 -0.00313592 -0.00140869 0.00156263
57 1 0.99983 0.250013 0.749987 -0.000844579 -0.00117399 0.000589566
58 1 0.0623206 0.312637 0.812349 -0.000777588 -0.000393479 -0.00206805
59 1 0.999572 0.250039 0.874549 -0.00173619 -0.00330517 -0.000476937
60 1 0.0616109 0.313069 0.936669 -0.00459631 0.00929225 -0.0197352
61 1 0.998385 0.376278 0.998332 0.00586052 -0.0112865 0.0103494
62 1 0.0607633 0.439235 0.0607661 -0.0060468 0.00604605 -0.00604724
63 1 0.99868 0.375589 0.124065 0.0231655 0.0191431 0.0151438
64 1 0.0592187 0.440532 0.185021 -0.0362303 -0.0122987 0.0159292
65 1 0.998181 0.376162 0.249066 0.105144 0.0235184 0.00426413
66 1 0.0605424 0.439492 0.3141 0.0284846 -0.0812056 -0.046755
67 1 0.998542 0.376283 0.376322 0.0411545 -0.0230347 -0.0167139
68 1 0.0620955 0.438062 0.437613 0.00664989 -0.00580095 -0.0235017
69 1 0.999232 0.375829 0.500989 -0.00479524 0.00530967 -0.00471534
70 1 0.0613807 0.438762 0.563767 0.0111944 -0.00652244 -0.00602323
71 1 0.999478 0.375295 0.625514 -0.00286091 -0.000239137 0.00360752
72 1 0.0622976 0.437766 0.687696 -0.00422814 0.00417015 0.00454693
73 1 0.999795 0.375148 0.749953 -0.00177279 0.000428006 0.00144754
74 1 0.0623344 0.437712 0.812301 -0.00252317 0.002368 -0.00405624
75 1 0.999459 0.375378 0.874432 -0.00303222 0.00135204 -0.00387307
76 1 0.0618786 0.438163 0.936638 -0.00786601 0.00786175 -0.0104962
77 1 0.998942 0.501056 0.998945 0.000559945 -0.000560262 0.000560025
78 1 0.0618355 0.563364 0.0618813 -0.00786161 0.0104961 -0.00786581
79 1 0.998329 0.501613 0.123723 0.0103499 -0.005861 0.0112869
80 1 0.0615938 0.563179 0.187195 -0.0170328 0.0287009 -0.0168815
81 1 0.998516 0.501278 0.250056 0.0495727 -0.0338701 -0.000515276
82 1 0.0620041 0.56283 0.312846 -0.011843 0.0255429 0.0102927
83 1 0.998836 0.501121 0.375791 0.0240451 -0.0236131 -0.00785523
84 1 0.0625426 0.562617 0.437589 -0.00108013 0.00516658 -0.00239269
85 1 0.999656 0.500486 0.500226 -0.00549265 0.0069158 0.00446523
86 1 0.0623808 0.562728 0.562682 -0.0046657 0.00440109 0.00315866
87 1 0.999476 0.500635 0.625544 0.00238386 -0.00102043 -0.00186559
88 1 0.0623748 0.562787 0.687627 0.00063404 0.00134587 0.000605608
89 1 0.999784 0.500264 0.749969 -0.00252134 0.00236618 -0.000203929
90 1 0.0622878 0.562822 0.812209 -0.00166908 0.00269083 -0.00177223
91 1 0.999549 0.500458 0.874465 -0.00309313 0.00278076 -0.00560463
92 1 0.0618 0.563381 0.936611 0.00413826 -0.00172737 0.00140286
93 1 0.99954 0.625536 0.999552 -0.00278057 0.00560453 -0.00309304
94 1 0.0622859 0.6877 0.0623371 -0.00236791 0.00405631 -0.00252329
95 1 0.999507 0.6255 0.124733 -0.00487131 0.00634697 -0.00428261
96 1 0.0623295 0.687627 0.18747 -0.0011023 0.00187316 -0.000659511
97 1 0.999644 0.625329 0.250082 -0.00323959 0.00441797 0.000580657
98 1 0.0624584 0.687532 0.31255 -0.000131493 0.00172888 0.00173933
99 1 0.999775 0.625267 0.375222 0.00129535 -0.000440093 0.00166796
100 1 0.0625921 0.687496 0.437456 -0.000420755 0.00142403 0.00121631
101 1 0.999983 0.625154 0.500064 -0.000442949 0.00119018 0.00115791
102 1 0.0624734 0.687522 0.562525 -0.000334432 -0.000368802 -0.00109934
103 1 0.999883 0.625171 0.625057 -0.00116266 0.000721 2.01553e-05
104 1 0.0624118 0.687559 0.687443 0.000243622 0.000296878 -9.34468e-05
105 1 0.999803 0.625245 0.749886 2.71437e-05 0.00125317 5.57234e-05
106 1 0.0623069 0.687704 0.812229 0.00106824 0.000418998 -0.000633172
107 1 0.999586 0.625465 0.874514 0.000689264 0.000447591 -0.000570638
108 1 0.0622119 0.687806 0.937131 -0.000470297 0.000575581 -0.00126245
109 1 0.999734 0.750032 0.999787 -0.00236608 0.000204016 -0.00252129
110 1 0.0622325 0.812305 0.0623004 -0.00417 -0.00454687 -0.0042279
111 1 0.999824 0.750048 0.124957 -0.00182566 -0.000805304 -0.000553044
112 1 0.0624244 0.812415 0.187551 -0.00355455 -0.0018005 0.00185272
113 1 0.999913 0.750005 0.250064 -0.00119886 0.00019362 0.000616599
114 1 0.0624986 0.812409 0.312583 0.00235477 0.00285367 0.00166637
115 1 0.999976 0.749976 0.375069 0.000812729 0.000471296 0.00217867
116 1 0.0626147 0.812467 0.437396 -0.000884067 -0.00469074 0.00137201
117 1 5.71421e-05 0.749993 0.499952 -0.000629185 -0.00147416 0.000991168
118 1 0.0623672 0.812305 0.56257 3.36326e-05 0.0015003 -0.0015699
119 1 0.999906 0.74996 0.624983 0.000189943 0.000468188 -0.000680139
120 1 0.0623622 0.812374 0.687458 0.000214203 -6.1261e-05 2.67248e-05
121 1 0.99982 0.750033 0.749837 0.000912709 0.000247216 -0.000526762
122 1 0.0623013 0.812405 0.8123 0.00106836 -6.22019e-05 -0.000217063
123 1 0.999717 0.750066 0.8747 0.000628678 -0.000199798 -0.000892077
124 1 0.0622154 0.81231 0.937167 0.00118148 -0.00129201 -0.00233115
125 1 0.999363 0.874457 0.999479 0.00102007 0.00186528 0.00238361
126 1 0.0612365 0.936235 0.0613835 0.00652229 0.00602288 0.0111943
127 1 0.999556 0.87458 0.124912 -0.00181291 -0.00216319 -0.000145531
128 1 0.0616377 0.936546 0.187676 0.0462409 0.0533748 -0.00266825
129 1 0.999656 0.874657 0.250188 -0.0051944 -0.00573599 -0.00182805
130 1 0.061753 0.936779 0.313074 0.0539181 0.0551684 -0.00323906
131 1 0.999753 0.874691 0.37527 0.00460737 0.00664585 0.00080455
132 1 0.0627272 0.937598 0.437218 -0.00234629 -0.0033979 0.00320562
133 1 6.16767e-05 0.874954 0.499913 -0.00169998 -0.00191146 0.000944564
134 1 0.0622616 0.937195 0.562706 -0.00236752 -0.00174991 0.00261285
135 1 0.999873 0.874835 0.625022 -0.000621523 -0.000715209 0.00104944
136 1 0.0622617 0.937232 0.6876 0.000737966 0.00150428 -0.0014767
137 1 0.999781 0.874817 0.749884 0.000704795 0.00041014 -0.000238464
138 1 0.0622453 0.937207 0.812267 0.000900069 0.000574344 0.000791727
139 1 0.999631 0.874749 0.874684 0.00103735 0.00195354 0.000862833
140 1 0.0619488 0.93698 0.93699 0.000111397 0.0021522 0.000262787
141 1 0.12417 0.999012 0.999234 -0.00530927 0.00471627 -0.00479395
142 1 0.186064 0.0607061 0.0615221 -0.00766368 -0.0109793 -0.0388674
143 1 0.122304 0.997104 0.122505 -0.00260542 -0.0739051 0.00746728
144 1 0.182937 0.0505777 0.183399 -0.037102 -0.120887 -0.0826958
145 1 0.123564 0.999141 0.251454 0.0580349 -0.0383735 -0.00877549
146 1 0.191609 0.0660218 0.309035 -0.228081 -0.157066 0.0864834
147 1 0.125866 0.000733903 0.373962 -0.0136146 -0.031995 0.0291225
148 1 0.186036 0.0608384 0.439081 -0.00352776 -0.0296569 -0.0116528
149 1 0.124413 0.999379 0.500532 -0.00803211 -0.00788025 0.0118146
150 1 0.18682 0.0614402 0.563303 -0.00460561 0.0292001 -0.0135669
151 1 0.124617 0.999537 0.625409 0.000134964 0.005925 -0.00614318
152 1 0.187371 0.0622682 0.687644 -0.00111726 0.00109091 -0.000130917
153 1 0.124846 0.999776 0.749988 -0.000645909 -0.000189795 0.000227718
154 1 0.187372 0.0622731 0.812411 0.000693476 -0.000517681 -0.0015376
155 1 0.124702 0.99952 0.874596 0.00264023 0.0017797 0.00264527
156 1 0.18713 0.0616876 0.936987 -0.00243017 -0.00108407 -0.013916
157 1 0.123716 0.123679 0.998545 0.0230347 0.0167143 0.0411551
158 1 0.183653 0.186207 0.0595104 0.0424039 -0.00710565 0.00829545
159 1 0.12593 0.124315 0.126443 0.0418632 0.16771 0.0500477
160 1 0.121261 0.124465 0.249619 0.0753973 0.209603 -0.0370589
161 1 0.186536 0.185962 0.311162 0.063953 0.0731392 0.0202974
162 1 0.125731 0.125207 0.375478 -0.0042225 -0.0883593 -0.0534239
163 1 0.19047 0.189204 0.434334 -0.144795 0.104379 0.139967
164 1 0.125481 0.125602 0.499712 -0.000847567 0.0075913 0.0122778
165 1 0.187564 0.18739 0.562465 -0.00619385 -0.00067995 -0.00653834
166 1 0.12499 0.124919 0.625053 -0.00428931 -0.00237207 0.018995
167 1 0.1875 0.187443 0.68746 -0.00120821 -0.000581324 -0.000807025
168 1 0.124924 0.124922 0.749979 0.000344171 5.86545e-05 0.00101082
169 1 0.187369 0.187411 0.812494 -0.000206286 0.00045948 -0.00145146
170 1 0.124673 0.12472 0.874732 -0.00349441 -0.00361163 -0.00506295
171 1 0.186907 0.187149 0.937175 -0.00760572 -0.00555267 -0.0316748
172 1 0.123836 0.250935 0.998184 -0.0235191 -0.00426423 0.105148
173 1 0.188487 0.314215 0.0618526 -0.150936 -0.0690827 -0.0770464
174 1 0.118944 0.253783 0.115136 0.0386439 0.0339436 0.22436
175 1 0.1833 0.316699 0.183302 0.109884 -0.109882 0.109886
176 1 0.119501 0.251882 0.376118 0.027452 -0.0384786 -0.135242
177 1 0.183397 0.317062 0.449423 -0.0826944 0.0371002 0.120894
178 1 0.123259 0.248618 0.501192 0.0830749 0.0383569 -0.0077467
179 1 0.187145 0.312792 0.563996 -0.0147955 0.0115241 -0.200169
180 1 0.124769 0.249834 0.62495 -0.0168948 -0.0164687 0.0566848
181 1 0.187443 0.312507 0.687552 0.00201653 -0.00162579 -0.00844804
182 1 0.124936 0.249999 0.749976 -9.31894e-05 -0.00116707 0.00133487
183 1 0.187456 0.312541 0.812534 -0.000367868 0.000929252 -0.00535389
184 1 0.124767 0.250145 0.87484 -0.00368027 0.00132293 -0.00382051
185 1 0.187454 0.312829 0.93756 0.00405987 0.0116274 -0.0658808
186 1 0.124409 0.375936 0.998683 -0.0191424 -0.0151451 0.0231686
187 1 0.185019 0.44078 0.0594694 0.0159274 0.0362331 0.0122961
188 1 0.122104 0.377894 0.122107 0.0600587 -0.0600607 0.0600596
189 1 0.185783 0.438149 0.188489 0.0690848 0.077049 -0.150934
190 1 0.115134 0.381055 0.246218 0.224376 -0.0386456 -0.0339423
191 1 0.187681 0.439411 0.310372 -0.120402 -0.0993478 0.058685
192 1 0.126441 0.374069 0.375686 0.0500529 -0.0418675 -0.167709
193 1 0.186996 0.437578 0.43794 -0.0150329 0.0809747 0.0931954
194 1 0.122502 0.377694 0.502897 0.00746722 0.00260455 0.0739045
195 1 0.187673 0.438361 0.563455 -0.00266848 -0.046242 -0.0533758
196 1 0.124661 0.375371 0.625304 -0.0144283 0.0168378 0.0254304
197 1 0.187549 0.437574 0.687586 0.00185276 0.0035546 0.00180063
198 1 0.12494 0.375091 0.749991 -0.000557579 0.000741735 3.00634e-05
199 1 0.187467 0.437669 0.812374 -0.000659591 0.00110225 -0.00187309
200 1 0.124876 0.375238 0.874778 -0.00397969 0.00235372 -0.00973414
201 1 0.187193 0.438405 0.936823 -0.016882 0.0170332 -0.0287009
202 1 0.12372 0.501669 0.998388 0.0112868 -0.0103497 0.00586122
203 1 0.186929 0.563332 0.0616136 -0.00929189 0.0197361 -0.00459757
204 1 0.124062 0.501318 0.124412 0.0151449 -0.0231672 -0.0191428
205 1 0.187169 0.562441 0.187456 -0.0116274 0.0658809 0.00405962
206 1 0.123183 0.501191 0.249758 0.0459347 -0.0462685 -0.0102524
207 1 0.18755 0.56243 0.312126 -0.00683794 0.0121952 -0.00015167
208 1 0.12516 0.499771 0.374904 -0.0179446 0.0658369 0.0281122
209 1 0.187389 0.562517 0.437611 0.000660322 0.00368366 -0.000698788
210 1 0.124837 0.500195 0.500339 -0.0142761 0.0173408 0.0138398
211 1 0.187553 0.562593 0.562597 0.00237606 0.00104977 -0.00042626
212 1 0.12491 0.500443 0.625422 -0.000145679 0.00181275 0.00216308
213 1 0.187536 0.562683 0.687615 0.000306608 0.0018554 0.000424137
214 1 0.124955 0.500175 0.749953 -0.000553003 0.00182576 0.000805511
215 1 0.187478 0.562738 0.812287 0.000147513 0.00203438 -0.00215983
216 1 0.12473 0.500492 0.874501 -0.00428276 0.00487148 -0.00634726
217 1 0.187279 0.563294 0.936722 0.00172748 -0.000793555 0.000461012
218 1 0.124621 0.625569 0.999462 -0.00135206 0.00387325 -0.00303232
219 1 0.187362 0.687652 0.0623233 0.000393422 0.00206831 -0.00077791
220 1 0.124761 0.625224 0.124879 -0.00235386 0.00973364 -0.00397966
221 1 0.187457 0.687467 0.187459 -0.000929217 0.00535412 -0.000367873
222 1 0.124757 0.625082 0.249949 0.00113522 0.00185746 -0.000858787
223 1 0.187585 0.687413 0.312379 -0.000241371 0.0012581 0.000112813
224 1 0.125083 0.624903 0.374907 -0.000482717 0.00737875 0.00270285
225 1 0.187536 0.687433 0.43745 0.000580598 -0.000804171 -0.00105158
226 1 0.124991 0.62506 0.500079 0.00167693 -0.00240806 -0.00247939
227 1 0.187509 0.687462 0.562522 0.00082514 -0.000890168 -0.000899238
228 1 0.124991 0.625083 0.625042 -2.92583e-05 0.00023849 4.09329e-06
229 1 0.187484 0.687507 0.687473 0.000261964 0.000185345 -0.000292604
230 1 0.124939 0.625177 0.749908 7.49785e-05 0.00147832 -0.000249136
231 1 0.187451 0.687656 0.812276 0.000761355 0.000341615 -0.000552712
232 1 0.124786 0.625437 0.87454 0.00189589 0.000357383 -0.000784321
233 1 0.187399 0.687747 0.937186 0.000873581 0.00102446 -0.00138074
234 1 0.12485 0.750048 0.999798 -0.000427963 -0.00144749 -0.00177286
235 1 0.187461 0.812392 0.0623667 0.00140869 -0.00156246 -0.00313581
236 1 0.124907 0.750011 0.124942 -0.000741738 -3.0154e-05 -0.000557626
237 1 0.187491 0.812449 0.187446 0.00162592 0.00844828 0.00201658
238 1 0.125017 0.750018 0.250006 0.000206602 -0.00149952 0.000915606
239 1 0.187664 0.812577 0.312416 -0.00120596 -0.000218909 0.000647602
240 1 0.125127 0.74997 0.374909 -1.70717e-05 -0.000492867 0.000640152
241 1 0.187485 0.812372 0.437541 -0.00152326 -0.000382375 -0.0015843
242 1 0.124999 0.749904 0.499999 -0.00102911 -0.000143118 -0.00120956
243 1 0.187409 0.812253 0.562642 0.00104607 -0.00160638 0.00105673
244 1 0.124935 0.749904 0.625013 0.0006139 -0.000611401 0.000254338
245 1 0.187418 0.812329 0.687526 0.000356429 -0.000263748 -0.000201156
246 1 0.124899 0.749992 0.749875 0.000715311 0.000208513 -0.000412907
247 1 0.187426 0.812391 0.812347 0.000843123 8.00344e-05 -0.000101246
248 1 0.124854 0.750046 0.874732 0.000596664 -0.000272847 -0.00108451
249 1 0.187423 0.812318 0.937213 0.00110829 -0.000475996 -0.00152834
250 1 0.124703 0.874487 0.999481 0.000239219 -0.00360762 -0.00286098
251 1 0.187444 0.936409 0.0615222 -0.00371484 0.0462894 0.0377208
252 1 0.124628 0.874697 0.124664 -0.0168378 -0.025431 -0.0144282
253 1 0.187206 0.936005 0.187147 -0.0115233 0.200169 -0.0147946
254 1 0.12491 0.875124 0.250165 -0.0165957 -0.0565162 0.0177846
255 1 0.18792 0.937791 0.312263 -0.0116889 -0.00493627 -0.00258156
256 1 0.125226 0.875138 0.374859 -0.00581797 -0.0251284 0.00510835
257 1 0.186952 0.936789 0.438364 -0.0107371 0.0197508 -0.0400556
258 1 0.124713 0.8746 0.500281 -0.00115961 0.00652184 -0.0067365
259 1 0.187311 0.937056 0.56287 -0.00437055 -0.0067697 0.00626407
260 1 0.124838 0.87474 0.625133 -0.000483077 -0.00128806 0.000751577
261 1 0.187358 0.937185 0.687676 0.000920899 -0.000954381 0.00103676
262 1 0.124852 0.874788 0.749944 0.00108319 -0.000228197 0.000452856
263 1 0.187419 0.93723 0.812344 0.000219287 0.000504555 0.00140495
264 1 0.124812 0.87475 0.87473 0.00123762 0.000138091 -0.000266567
265 1 0.187376 0.937068 0.937113 0.00259687 0.00150844 -0.000305784
266 1 0.250051 0.999426 0.999569 0.00336709 0.00424315 -0.00678757
267 1 0.31303 0.0620804 0.0620273 -0.00689297 -0.0075908 -0.00804466
268 1 0.25138 0.998809 0.123262 -0.0383555 0.00774573 0.0830743
269 1 0.310795 0.0656671 0.190472 -0.104374 -0.139969 -0.144796
270 1 0.250327 0.000607296 0.249493 -0.0585392 -0.0470114 -0.0594131
271 1 0.316451 0.0509298 0.315828 0.0462321 -0.0211987 0.0636156
272 1 0.249115 0.998239 0.376775 0.0224592 0.0394935 -0.045791
273 1 0.315151 0.0607724 0.439054 -0.00751259 -0.0755413 0.0807218
274 1 0.250185 0.999083 0.500826 -0.00707271 0.0263257 -0.0211291
275 1 0.31272 0.0612406 0.563484 0.0102199 0.0236569 0.00276781
276 1 0.249892 0.99943 0.625493 0.00143732 -0.00162895 0.00183533
277 1 0.31255 0.0622552 0.687668 -0.00118287 -0.00302659 0.00336833
278 1 0.249967 0.999784 0.750036 0.000311798 -6.8326e-05 0.000986879
279 1 0.312513 0.0623255 0.812451 -0.000723272 0.00116859 0.00109746
280 1 0.250005 0.999642 0.874739 -0.0012657 0.00239283 0.00313124
281 1 0.312625 0.0620203 0.9372 -0.00414742 0.00316032 -0.0084065
282 1 0.249428 0.123921 0.998966 0.000752397 0.0389461 0.0567266
283 1 0.313164 0.186601 0.0609863 -0.0956141 -0.00817019 -0.0107349
284 1 0.248116 0.123883 0.119503 0.0384617 0.135256 0.0274603
285 1 0.314037 0.188839 0.186539 -0.0731273 -0.0202891 0.063966
286 1 0.250175 0.11696 0.381938 -0.0415326 0.0712546 -0.0155577
287 1 0.315825 0.183548 0.449071 0.0636186 -0.0462361 0.0212038
288 1 0.24893 0.122699 0.501789 0.0262385 0.0598749 -0.0229308
289 1 0.312769 0.186989 0.564087 0.000168422 -0.00584598 -0.185688
290 1 0.249895 0.124541 0.62506 -0.0176107 -0.0150141 0.0462434
291 1 0.312519 0.187345 0.687601 -0.00190547 0.00192886 -0.00901758
292 1 0.24994 0.124865 0.750008 -0.000791967 -8.80451e-05 0.00189727
293 1 0.312413 0.187409 0.812564 0.000145765 -0.000375682 -0.000258924
294 1 0.249852 0.124713 0.874899 1.84855e-05 0.00187155 0.00113574
295 1 0.312378 0.18724 0.93748 0.00227364 -0.00260231 -0.0163159
296 1 0.249109 0.249195 0.999784 -0.0116764 0.0169054 -0.0341044
297 1 0.310369 0.312317 0.0605905 0.058693 0.120406 0.0993371
298 1 0.25057 0.249428 0.250573 -0.157885 0.157894 -0.157896
299 1 0.311159 0.313462 0.314039 0.0202889 -0.0639573 -0.0731329
300 1 0.309033 0.308389 0.433979 0.0864787 0.228081 0.157062
301 1 0.24949 0.249672 0.499394 -0.0594133 0.0585397 0.0470136
302 1 0.31226 0.312078 0.56221 -0.00258151 0.0116889 0.00493665
303 1 0.24995 0.249853 0.624706 -0.00204561 0.00228937 0.0847459
304 1 0.312413 0.312334 0.687424 0.000647623 0.00120588 0.000219039
305 1 0.24993 0.249923 0.750002 -0.000228211 -0.000117381 0.000407137
306 1 0.312376 0.312413 0.812588 0.000112842 0.000241423 -0.00125814
307 1 0.249776 0.249883 0.875109 -0.000888508 0.000542364 -0.00842802
308 1 0.312124 0.312449 0.937571 -0.000151766 0.00683848 -0.0121958
309 1 0.249755 0.376815 0.99881 -0.0102533 -0.0459372 0.0462672
310 1 0.314097 0.439456 0.0605094 -0.0467562 -0.0284836 0.0812048
311 1 0.246215 0.384865 0.118946 -0.0339432 -0.224352 0.0386373
312 1 0.313791 0.440491 0.183656 0.00710513 -0.00829214 0.0424047
313 1 0.313397 0.439015 0.313166 0.00816958 0.0107348 -0.0956151
314 1 0.249616 0.378737 0.375536 -0.0370546 -0.0753957 -0.209598
315 1 0.313221 0.437662 0.437528 0.010782 -0.00640203 -0.00811958
316 1 0.251451 0.376434 0.500861 -0.008778 -0.058036 0.0383717
317 1 0.313072 0.438245 0.563222 -0.00323926 -0.0539173 -0.0551675
318 1 0.250162 0.375088 0.624877 0.0177847 0.0165956 0.0565159
319 1 0.31258 0.4375 0.687592 0.00166637 -0.00235468 -0.00285352
320 1 0.250004 0.374981 0.749983 0.00091559 -0.000206651 0.00149953
321 1 0.312547 0.43754 0.812469 0.00173938 0.000131388 -0.00172872
322 1 0.249946 0.375242 0.874919 -0.000858892 -0.00113543 -0.0018576
323 1 0.312843 0.437994 0.937172 0.0102933 0.0118438 -0.0255437
324 1 0.250053 0.501482 0.998723 -0.000515463 -0.0495739 0.0338719
325 1 0.31262 0.56301 0.0618544 0.0180002 0.0400885 -0.00793101
326 1 0.249064 0.501817 0.123839 0.00426302 -0.105149 -0.0235192
327 1 0.31285 0.562826 0.18691 0.0055533 0.0316766 -0.0076051
328 1 0.250804 0.500217 0.249111 -0.0169041 0.034101 -0.0116759
329 1 0.312758 0.562521 0.312381 0.00260206 0.0163161 0.00227372
330 1 0.249899 0.500454 0.375257 0.00416178 -0.00357237 -0.0124319
331 1 0.312657 0.562603 0.437632 -0.00242278 0.00131321 -0.00347509
332 1 0.2501 0.499957 0.50001 0.00795616 0.0261935 0.0107747
333 1 0.31259 0.562572 0.562558 0.0018361 -2.02912e-05 -0.00180535
334 1 0.250186 0.500342 0.625344 -0.00182813 0.00519443 0.00573596
335 1 0.312622 0.562629 0.68762 -0.000715004 0.00204818 0.000907373
336 1 0.250061 0.500085 0.749996 0.000616672 0.00119882 -0.000193582
337 1 0.312606 0.562673 0.812335 0.000222159 0.00100912 -0.000721416
338 1 0.250079 0.500355 0.874672 0.000580912 0.00323978 -0.00441801
339 1 0.312729 0.56317 0.936834 -0.00149651 0.00247342 -0.000377055
340 1 0.249959 0.625452 0.999575 0.0033051 0.00047694 -0.00173637
341 1 0.312519 0.687593 0.0623505 0.00169352 0.00483591 -0.00158606
342 1 0.249853 0.625161 0.124769 -0.00132293 0.0038194 -0.00368029
343 1 0.312587 0.687507 0.187372 -0.000459426 0.00145175 -0.0002064
344 1 0.250115 0.624892 0.249779 -0.000542302 0.00842793 -0.000888224
345 1 0.312589 0.687437 0.312416 0.000375618 0.000259009 0.00014572
346 1 0.250048 0.624913 0.374929 -0.000306805 -0.000328547 -0.00201957
347 1 0.312541 0.687456 0.437499 -8.66842e-05 -0.0015127 -0.00137086
348 1 0.250017 0.624983 0.500013 0.00131947 -0.000341687 -0.000774759
349 1 0.312517 0.687437 0.562553 0.000764941 -0.000278913 -0.000643022
350 1 0.250045 0.625034 0.625047 0.000779267 -0.000569151 -0.000876756
351 1 0.312543 0.687472 0.68751 0.000575344 -2.55899e-05 -0.000135944
352 1 0.250042 0.625117 0.749943 0.000552866 0.00120232 -0.000405328
353 1 0.312569 0.68762 0.812315 0.000495479 0.000113812 -0.000467371
354 1 0.250019 0.625361 0.874616 0.00110075 0.000194723 -0.000555856
355 1 0.31256 0.68771 0.937221 0.0018219 6.73547e-05 -0.000369379
356 1 0.249986 0.750014 0.999833 0.001174 -0.000589641 -0.000844549
357 1 0.312592 0.812368 0.0623643 0.00154513 0.00290154 0.00185017
358 1 0.249999 0.750025 0.124939 0.00116704 -0.00133491 -9.3055e-05
359 1 0.312555 0.812541 0.187503 0.000581219 0.000807257 -0.00120815
360 1 0.250075 0.749999 0.249932 0.000117375 -0.000407203 -0.000228197
361 1 0.312653 0.812401 0.312522 -0.00192899 0.00901795 -0.00190545
362 1 0.250059 0.749959 0.374959 -0.000229291 -0.00169253 -0.000168245
363 1 0.312579 0.812337 0.437618 -0.000451866 -0.00398454 0.00290887
364 1 0.250006 0.749879 0.500032 0.000218996 -0.000774123 -0.000288889
365 1 0.312528 0.812187 0.562743 0.000336284 -0.000987356 0.000665079
366 1 0.249984 0.749862 0.625065 0.000307037 -0.000352505 0.00011644
367 1 0.312524 0.812296 0.68759 0.000337334 -0.000624173 -6.67319e-05
368 1 0.249994 0.749962 0.74992 0.000572079 -0.000177822 -0.000261708
369 1 0.312551 0.812383 0.812389 0.000492522 0.000120299 0.000414124
370 1 0.249998 0.750022 0.874775 0.000827725 -0.000313501 -0.000712074
371 1 0.312608 0.81232 0.93724 -0.000372703 -0.000496488 -0.000656026
372 1 0.250108 0.87454 0.999526 -0.00102022 -0.00422719 -0.00404819
373 1 0.313115 0.936615 0.0615955 -0.00284925 0.0451333 0.0446041
374 1 0.250164 0.875051 0.124771 0.0164688 -0.0566846 -0.0168946
375 1 0.312608 0.937536 0.187566 0.000679906 0.00653818 -0.00619401
376 1 0.250145 0.875295 0.249952 -0.00228946 -0.0847457 -0.00204559
377 1 0.313009 0.935914 0.312771 0.00584575 0.185689 0.000168744
378 1 0.250014 0.875005 0.375251 -0.0173227 -0.0477386 0.0159109
379 1 0.312743 0.93661 0.438552 0.0144338 -0.0116355 -0.0168803
380 1 0.249933 0.874522 0.500416 0.00243498 -0.00338609 0.00282088
381 1 0.312634 0.936805 0.563141 -0.00166298 -0.00465831 0.0044094
382 1 0.249927 0.874655 0.625249 -0.000198189 -0.000890366 5.42039e-06
383 1 0.31254 0.937139 0.687757 -4.94751e-05 -0.00105256 0.00073106
384 1 0.249972 0.874774 0.750004 0.000291977 -0.000131506 0.000338734
385 1 0.312563 0.93726 0.8124 -0.000451548 0.00138406 0.00160496
386 1 0.250009 0.87477 0.874779 0.000564446 0.000960305 0.00104772
387 1 0.312651 0.937161 0.93718 0.000858272 0.00323933 0.00182372
388 1 0.375284 0.999628 0.99972 -0.00499316 0.00877596 -0.00719902
389 1 0.437787 0.0620612 0.0622527 -0.0239952 0.0486679 0.0715806
390 1 0.374396 0.000288818 0.125484 -0.00759061 -0.0122778 -0.000847571
391 1 0.43916 0.06092 0.186039 0.029657 0.0116515 -0.00352807
392 1 0.3773 0.998212 0.248932 -0.0598747 0.0229312 0.0262385
393 1 0.439226 0.0609471 0.315154 0.075541 -0.0807216 -0.00751177
394 1 0.37749 0.997134 0.377339 -0.0166598 0.0207005 -0.0158228
395 1 0.437479 0.0625198 0.437481 0.0438121 -0.0438123 0.0438125
396 1 0.376082 0.99851 0.501456 0.0118275 0.039502 -0.0418008
397 1 0.438704 0.0612599 0.563772 -0.00705078 0.00726209 0.0148532
398 1 0.37533 0.999326 0.625655 6.63948e-06 -0.000766711 0.000282379
399 1 0.437764 0.0622167 0.687824 0.00200747 -0.00241142 0.00555804
400 1 0.375098 0.999784 0.750093 -7.0172e-05 -0.000162764 0.00175653
401 1 0.437604 0.0623744 0.812496 -0.0009587 0.000173426 0.000974374
402 1 0.375159 0.999739 0.874799 -0.0038279 0.00338677 0.00421813
403 1 0.437758 0.0621978 0.937248 -0.00515592 0.00349738 0.00160509
404 1 0.375326 0.124428 0.999535 -0.00159692 -6.74804e-05 -0.00821251
405 1 0.437525 0.186778 0.0623392 -0.00811941 -0.010782 0.00640226
406 1 0.374792 0.124523 0.125734 0.0883608 0.0534229 -0.00422482
407 1 0.433977 0.190966 0.191612 0.157063 -0.0864829 -0.228081
408 1 0.383039 0.118063 0.250178 -0.0712545 0.0155587 -0.0415323
409 1 0.449069 0.184173 0.316453 0.0211982 -0.0636147 0.0462335
410 1 0.371763 0.128236 0.371765 0.214077 -0.214078 0.214081
411 1 0.439051 0.184847 0.439229 0.0807219 0.00751239 0.0755415
412 1 0.377337 0.122509 0.502867 -0.0158248 0.0166613 -0.0207022
413 1 0.438549 0.187256 0.563391 -0.01688 -0.0144338 0.0116357
414 1 0.375393 0.124527 0.625348 0.0162815 -0.0163041 0.0283025
415 1 0.437615 0.187419 0.687664 0.00290888 0.000451705 0.00398442
416 1 0.375045 0.124882 0.750071 -5.18783e-06 -0.000243288 0.00225331
417 1 0.437496 0.187457 0.812545 -0.00137094 8.65944e-05 0.00151275
418 1 0.37502 0.12485 0.874937 0.000143371 -0.00043598 0.00136777
419 1 0.437629 0.187341 0.937398 -0.00347513 0.00242293 -0.00131309
420 1 0.375255 0.250099 0.999547 -0.0124338 -0.00416119 0.00357438
421 1 0.437937 0.313002 0.062423 0.0931957 0.0150326 -0.0809764
422 1 0.375533 0.250382 0.121264 -0.209599 0.0370523 0.0753942
423 1 0.449421 0.316602 0.18294 0.120886 0.0826977 -0.0371056
424 1 0.434331 0.309529 0.310797 0.139971 0.144796 -0.104372
425 1 0.381935 0.249823 0.383041 -0.0155609 0.0415328 -0.0712551
426 1 0.439078 0.313962 0.439163 -0.0116502 0.00352767 0.0296562
427 1 0.376773 0.250884 0.501763 -0.0457933 -0.0224586 -0.0394942
428 1 0.438361 0.313046 0.563212 -0.0400541 0.0107368 -0.0197495
429 1 0.375248 0.249985 0.624996 0.0159108 0.0173228 0.0477382
430 1 0.437539 0.312513 0.687629 -0.00158433 0.00152328 0.000382403
431 1 0.374957 0.24994 0.750043 -0.000168379 0.000229166 0.00169257
432 1 0.437448 0.312462 0.812568 -0.00105164 -0.00058074 0.000804283
433 1 0.374926 0.249951 0.875089 -0.00201965 0.000306802 0.000328628
434 1 0.437608 0.312609 0.937484 -0.000698812 -0.000660351 -0.00368379
435 1 0.374901 0.374838 0.00023047 0.0281124 0.0179445 -0.0658361
436 1 0.437611 0.437903 0.0619393 -0.0235017 -0.00664903 0.00580004
437 1 0.375683 0.373558 0.125933 -0.167707 -0.0500473 0.041862
438 1 0.439292 0.438479 0.186067 0.0109787 0.0388679 -0.00766449
439 1 0.376115 0.380498 0.248119 -0.135249 -0.0274617 0.0384672
440 1 0.437918 0.437974 0.313033 0.00758995 0.00804525 -0.00689219
441 1 0.375475 0.374267 0.374794 -0.0534218 0.00422369 0.0883603
442 1 0.437937 0.437748 0.437789 -0.0486673 -0.0715801 -0.0239956
443 1 0.373959 0.374132 0.499267 0.0291203 0.0136136 0.031994
444 1 0.437215 0.437271 0.562403 0.00320578 0.00234638 0.00339817
445 1 0.374856 0.374772 0.624863 0.00510828 0.00581789 0.0251281
446 1 0.437394 0.437384 0.687534 0.00137206 0.000884052 0.00469077
447 1 0.374906 0.374871 0.750031 0.000640244 1.7089e-05 0.000492881