ITEM: TIMESTEP
0
ITEM: NUMBER OF ATOMS
1026
ITEM: BOX BOUNDS pp pp pp
0.0000000000000000e+00 2.2857118000000000e+01
0.0000000000000000e+00 2.2857118000000000e+01
0.0000000000000000e+00 2.2857118000000000e+01
ITEM: ATOMS id type xs ys zs fx fy fz
1 1 0.227935 0.220904 0.130964 -0.31189 -0.17305 -0.0195976
2 1 0.285935 0.296446 0.15127 0.057007 -0.319214 -0.00578528
3 1 0.219884 0.142199 0.211053 0.0370666 0.162968 0.0623038
4 1 0.151267 0.214063 0.203555 -0.00578535 -0.0570002 0.319213
5 1 0.357799 0.288948 0.219887 -0.162967 -0.0623046 0.0370649
6 1 0.279094 0.369037 0.227938 0.173054 0.0195997 -0.311894
7 1 0.285593 0.14185 0.283935 -0.177745 0.144341 -0.0841663
8 1 0.358149 0.216066 0.285596 -0.144341 0.084168 -0.177745
9 1 0.130961 0.272063 0.279097 -0.0196008 0.311892 0.173054
10 1 0.203552 0.348731 0.285938 0.319216 0.00578744 0.0570001
11 1 0.283933 0.214405 0.358151 -0.0841672 0.177745 -0.144341
12 1 0.21105 0.280114 0.357802 0.0623044 -0.0370684 -0.162969
13 1 0.999816 0.999983 3.07809e-06 0.00237274 -0.000680797 -0.00226439
14 1 0.0629952 0.0632064 0.0631958 -0.0441106 -0.0468486 -0.0685535
15 1 0.999417 0.999295 0.124659 0.0581925 0.0613796 -0.00755829
16 1 0.0627207 0.0625622 0.185752 -0.0857343 -0.0995406 -0.0322636
17 1 3.0485e-05 0.999928 0.249827 -0.0011736 0.0124257 -0.00503581
18 1 0.0617415 0.0619241 0.313571 0.0517327 -0.0030709 -0.0126908
19 1 0.999829 0.99972 0.375293 -0.0249819 -0.0124305 0.0082967
20 1 0.0618175 0.0619008 0.438274 0.0919096 0.035465 -0.0719638
21 1 0.999694 0.999585 0.500372 0.00870002 7.97075e-05 -0.00470474
22 1 0.0626103 0.0624529 0.562609 -0.00297214 -0.0022956 0.00286621
23 1 0.999935 0.999851 0.625078 -0.00113379 -0.0021533 0.00295953
24 1 0.0624072 0.0623744 0.687557 -0.00038037 -0.000851321 0.0031923
25 1 0.999798 0.999799 0.749865 -0.00119843 -0.00168452 0.000664657
26 1 0.0621973 0.0622175 0.81221 -0.00245533 -0.00282027 -0.00447608
27 1 0.999443 0.999498 0.874441 0.00200135 0.000506043 -0.00176548
28 1 0.0614352 0.0614439 0.936431 0.00508675 0.00353256 -0.0115973
29 1 0.998731 0.124095 0.998585 0.0698274 -0.00173777 0.0758274
30 1 0.0610608 0.185166 0.0607453 0.0361021 0.0325038 -0.0401271
31 1 0.99972 0.124736 0.124658 0.0159352 -0.0245286 -0.0216833
32 1 0.0565002 0.18816 0.187967 -0.0402508 -0.135934 -0.0639577
33 1 0.998871 0.123781 0.250484 0.0399014 0.0473777 0.0200893
34 1 0.0635288 0.188498 0.310656 0.0144601 0.0860288 -0.0770208
35 1 0.999773 0.12489 0.374906 0.0133728 0.0401855 -0.0124951
36 1 0.0605662 0.185467 0.439302 0.00461532 -0.00703864 0.0270969
37 1 0.999231 0.124172 0.500911 -0.0119495 -0.00310596 0.00572477
38 1 0.0615415 0.186826 0.563307 0.0456711 -0.0114014 -0.025083
39 1 0.999592 0.124607 0.625451 0.00507028 -0.00225358 -0.00481296
40 1 0.0623633 0.187404 0.687617 0.000870165 -0.000951691 -0.00195926
41 1 0.999816 0.124911 0.749984 -0.000717369 -0.00187861 -0.00129249
42 1 0.0623532 0.187505 0.812408 -0.00247931 0.000226606 -0.00541111
43 1 0.999477 0.124769 0.874467 -0.00102454 -0.000758929 -0.00157812
44 1 0.0615698 0.187426 0.936724 0.0200656 -0.0144305 -0.0186709
45 1 0.999225 0.249992 0.998905 0.0260592 -0.00571058 0.0493618
46 1 0.0607423 0.314386 0.0604778 0.092886 -0.0418057 -0.00182323
47 1 0.999482 0.250424 0.123146 -0.00694894 0.0305285 0.077643
48 1 0.0658592 0.307645 0.188676 -0.166785 0.130462 -0.0744096
49 1 0.998693 0.25079 0.251429 0.128539 -0.0038162 -0.0535763
50 1 0.0509764 0.31563 0.316349 -0.00436776 0.0865668 0.0340366
51 1 0.997539 0.248853 0.377442 0.0609423 0.00521293 -0.0567019
52 1 0.0607889 0.314421 0.439347 -0.0554072 -0.00500959 0.0229873
53 1 0.999023 0.24992 0.501052 0.0242435 0.000153044 -0.0321258
54 1 0.0617198 0.312539 0.563094 0.00692765 0.010107 0.00723379
55 1 0.999575 0.24994 0.625421 -0.0022271 0.00248551 0.00175782
56 1 0.0623853 0.312538 0.68756 -0.00128735 -0.000457916 0.000691382
57 1 0.99984 0.250035 0.749982 -0.000257029 -0.00021085 -3.88199e-05
58 1 0.0623466 0.312663 0.81237 0.00189868 0.00108113 0.000216432
59 1 0.999514 0.250108 0.874495 -0.0031354 -0.00218156 -0.00188288
60 1 0.0613898 0.3133 0.936525 0.0542972 0.011684 0.0282805
61 1 0.999075 0.375816 0.999054 -0.00935123 -0.0022292 -0.00403475
62 1 0.0611643 0.438834 0.0611671 0.0911401 -0.0911407 0.0911397
63 1 9.35685e-05 0.374403 0.125158 -0.000120366 0.041262 0.0192766
64 1 0.060475 0.439256 0.185615 -0.00182328 -0.0928865 0.0418062
65 1 0.997783 0.376299 0.248475 0.0712194 0.0213759 0.0535559
66 1 0.0607425 0.438938 0.314835 -0.0401262 -0.036104 -0.0325043
67 1 0.997375 0.377033 0.37728 -0.0127406 0.0160878 0.0137119
68 1 0.063193 0.437003 0.436795 -0.068552 0.0441089 0.0468468
69 1 0.998739 0.376021 0.501277 0.0536817 0.0065512 -0.0454101
70 1 0.0617726 0.43832 0.563225 0.00555894 -0.00555678 0.0112558
71 1 0.999596 0.375269 0.625393 -0.000766125 8.95707e-05 0.00200609
72 1 0.0623427 0.437708 0.687661 3.21772e-05 -2.99237e-05 0.000127833
73 1 0.999824 0.37515 0.749952 7.35459e-05 0.00116298 0.00109
74 1 0.0624184 0.437637 0.812387 0.000289958 0.000256357 -0.00225495
75 1 0.999458 0.375462 0.874441 0.00441097 0.00101925 0.00531049
76 1 0.0623153 0.437704 0.937164 0.0022454 -0.00298774 0.00517821
77 1 0.999201 0.500797 0.999204 0.0112492 -0.0112493 0.0112491
78 1 0.0622947 0.562837 0.0623181 0.00298789 -0.00517836 0.00224549
79 1 0.999051 0.500923 0.124185 -0.0040343 0.0093509 0.0022294
80 1 0.0616805 0.563043 0.187161 0.015356 -0.00897827 -0.00913425
81 1 0.998902 0.500774 0.250009 0.0493621 -0.0260594 0.00571054
82 1 0.0620195 0.562648 0.312737 -0.0223859 0.0345899 0.0040642
83 1 0.998582 0.501268 0.375906 0.0758267 -0.0698265 0.00173784
84 1 0.0624057 0.562574 0.437673 -0.00897412 0.0302519 0.00586713
85 1 2.79523e-07 0.500183 0.500019 -0.00226426 -0.00237273 0.000680723
86 1 0.0622842 0.562818 0.56279 -0.0063059 -0.000846427 -8.72158e-05
87 1 0.999669 0.500451 0.625387 0.00278467 -0.00261585 0.000252707
88 1 0.0623994 0.562719 0.687605 0.000107837 -0.000360671 0.000368709
89 1 0.999845 0.500207 0.749998 1.75261e-05 0.000211663 -0.000433629
90 1 0.0623101 0.562745 0.812274 -0.0004263 -0.00127519 0.00171329
91 1 0.999736 0.500262 0.874697 0.0008597 -0.00111851 -0.000446048
92 1 0.0620411 0.563041 0.936932 0.00451063 -0.00393256 0.00244788
93 1 0.999736 0.625305 0.999739 0.0011186 0.000446 0.000859794
94 1 0.0623618 0.687614 0.0624212 -0.00025629 0.00225485 0.000290028
95 1 0.999619 0.625388 0.124735 0.0020262 -0.00168596 -0.00286757
96 1 0.0623842 0.68758 0.187472 0.00110012 -0.00203619 -0.000156075
97 1 0.999703 0.625249 0.250047 -0.000623242 0.00172216 0.000223605
98 1 0.0624735 0.687501 0.31252 -0.000410238 0.000355665 0.000442659
99 1 0.999788 0.625228 0.375183 -0.000297605 -0.00142335 0.000306268
100 1 0.0625505 0.68751 0.437468 -0.000780125 0.0011703 0.000392542
101 1 0.999968 0.625161 0.500084 -0.000891538 0.0032397 0.000923444
102 1 0.0624537 0.687546 0.562547 -0.000965112 7.41914e-05 -0.000300132
103 1 0.999859 0.625183 0.6251 -0.00125466 -0.000752353 -0.00018117
104 1 0.0624066 0.687544 0.687464 0.000488045 1.21253e-05 0.000341098
105 1 0.999828 0.625188 0.749917 0.000474377 -0.000720837 0.000777636
106 1 0.0623124 0.687643 0.812279 0.000749334 -0.00107416 0.000548665
107 1 0.999699 0.625309 0.874662 0.00211179 -0.00227413 0.00159858
108 1 0.0621983 0.687772 0.937167 0.000462545 -0.0026153 0.00173346
109 1 0.999791 0.750003 0.999848 -0.00021161 0.000433581 1.75633e-05
110 1 0.0622906 0.81234 0.0623455 2.99582e-05 -0.000127832 3.22035e-05
111 1 0.999872 0.750037 0.124968 0.000615935 -0.000841815 -0.0006987
112 1 0.062479 0.812467 0.187523 -0.000841346 5.00907e-05 -0.000255672
113 1 0.999951 0.750007 0.250034 0.000296836 0.000428646 -0.000471951
114 1 0.0625157 0.812437 0.312551 0.00239622 0.00333712 -0.000490029
115 1 0.999986 0.749978 0.375043 0.000925579 0.000919091 0.000854419
116 1 0.0626139 0.812488 0.437391 -0.00106149 -0.00468814 0.00104972
117 1 4.92067e-05 0.750005 0.499953 -0.000859426 -0.00114101 0.000904049
118 1 0.0623752 0.812319 0.562563 0.000225834 0.00218834 -0.00190205
119 1 0.999901 0.749961 0.624993 0.000153731 0.000206434 -0.000386442
120 1 0.0623607 0.812361 0.687447 0.000379071 -0.000365498 -0.000267844
121 1 0.999819 0.749995 0.749855 0.000748578 -0.000518793 -5.18334e-05
122 1 0.0622783 0.812363 0.812284 0.000983779 -0.000938779 -0.000684239
123 1 0.999726 0.750042 0.874741 0.000781104 -0.00120326 0.000719791
124 1 0.0622268 0.812333 0.937224 -6.66229e-05 -0.00141267 -0.000522599
125 1 0.999547 0.874614 0.999671 0.00261571 -0.000252967 0.00278452
126 1 0.0616787 0.936776 0.0617754 0.00555651 -0.0112562 0.00555867
127 1 0.999709 0.874702 0.124924 0.000813689 9.12047e-05 0.000302498
128 1 0.0620186 0.937088 0.187509 0.0165532 0.00325824 -0.00361018
129 1 0.999793 0.87477 0.25006 -0.00114136 -0.00353415 -0.00413711
130 1 0.06182 0.936868 0.312989 0.0606188 0.0622899 -0.00385821
131 1 0.999781 0.874708 0.375238 0.00661709 0.00889971 0.000239278
132 1 0.0628071 0.937655 0.437191 0.00091904 0.000923006 0.000601949
133 1 8.1878e-05 0.874966 0.499906 -0.00117692 -0.00188035 0.00124705
134 1 0.0623325 0.937232 0.562654 -0.000449893 -0.00207998 0.00332951
135 1 0.999891 0.874836 0.625006 -0.000109431 -0.00111092 0.0011046
136 1 0.062274 0.937214 0.687579 0.00079954 0.000465576 -0.00209667
137 1 0.999759 0.874775 0.749858 0.000620432 -0.000482499 -0.000675081
138 1 0.0621912 0.937127 0.81219 0.000173114 -0.0013097 -0.00155381
139 1 0.999582 0.874687 0.874658 7.0709e-05 0.00161476 0.00251553
140 1 0.0618231 0.936845 0.93687 -0.00227297 0.00578527 0.00770002
141 1 0.123977 0.998724 0.998742 -0.00655121 0.0454108 0.0536827
142 1 0.185578 0.0606542 0.0607917 0.00500927 -0.0229884 -0.0554076
143 1 0.123434 0.998173 0.123319 0.0205801 0.0212458 0.0109645
144 1 0.185434 0.0527816 0.185024 -0.0655663 0.0729162 -0.0694998
145 1 0.123872 0.999317 0.251097 0.0388748 -0.0243201 -0.00365013
146 1 0.192072 0.0667366 0.307795 -0.18725 -0.215744 0.137913
147 1 0.126121 0.00102269 0.373786 -0.0432262 -0.0603984 0.0574012
148 1 0.186302 0.0611686 0.438708 0.000980092 -0.00126244 -0.0463777
149 1 0.12458 0.999526 0.500375 -0.00618797 -0.017113 0.0186633
150 1 0.186965 0.0614304 0.563317 0.000743778 0.0430289 -0.0337042
151 1 0.124672 0.99953 0.625391 0.00083229 0.00483758 -0.00645287
152 1 0.187392 0.0622721 0.687629 0.000422328 0.00113809 -0.00253715
153 1 0.124846 0.999745 0.74995 -0.000621345 -0.00125093 -0.00139708
154 1 0.187389 0.0622227 0.812347 0.00119172 -0.00441276 -0.00588571
155 1 0.124612 0.999346 0.874401 0.000267558 -0.00157416 -0.0028064
156 1 0.187233 0.061167 0.93648 -0.00864436 0.0193094 -0.0102845
157 1 0.122965 0.122721 0.997378 -0.0160874 -0.0137116 -0.0127399
158 1 0.184368 0.183652 0.0509792 -0.0865702 -0.0340355 -0.00436332
159 1 0.130785 0.129291 0.128056 -0.104288 -0.017319 -0.0977761
160 1 0.120236 0.120972 0.249646 0.118825 0.0511665 -0.0798114
161 1 0.185362 0.183138 0.311816 0.165052 0.0957439 -0.0173878
162 1 0.124857 0.124805 0.375839 -0.0310426 -0.106594 -0.0220275
163 1 0.190896 0.190098 0.433426 -0.131225 -0.0477163 0.236151
164 1 0.12581 0.125491 0.499669 -0.0253712 -0.00577576 0.0215659
165 1 0.187459 0.187245 0.562517 -0.00983543 -0.0104294 0.00177162
166 1 0.124967 0.124884 0.625036 -0.00527251 -0.00488205 0.0240019
167 1 0.187475 0.187418 0.687468 -0.00185151 -0.00167552 -0.000141845
168 1 0.124894 0.124886 0.749971 -0.000878249 -0.000570587 -0.0018111
169 1 0.187361 0.187363 0.812391 -0.000614355 0.000295032 0.00617198
170 1 0.124489 0.124488 0.874604 -0.018117 -0.0179296 -0.0337165
171 1 0.186823 0.186694 0.935658 -0.00736884 -0.0192973 0.108262
172 1 0.123699 0.251526 0.997786 -0.0213757 -0.053556 0.071218
173 1 0.192353 0.311325 0.0658621 -0.130462 0.074411 -0.166788
174 1 0.120914 0.250236 0.114186 0.133732 0.0493047 0.0584772
175 1 0.184824 0.315174 0.184827 -0.0012682 0.00126637 -0.00126611
176 1 0.116358 0.248696 0.381781 0.0333309 0.0166715 -0.0776366
177 1 0.185021 0.314565 0.44722 -0.0694997 0.0655654 -0.0729169
178 1 0.123411 0.248533 0.501232 0.0332035 0.0172439 -0.00905157
179 1 0.187098 0.312736 0.563784 -0.00927518 0.00234759 -0.141279
180 1 0.124749 0.249817 0.624923 -0.019519 -0.0129323 0.0540997
181 1 0.187425 0.312497 0.687544 0.000604008 -0.00127265 -0.00857431
182 1 0.124935 0.250008 0.750003 -0.000851346 0.000276883 -0.000983346
183 1 0.18749 0.312508 0.812608 0.000577847 0.00290846 -0.00433712
184 1 0.124769 0.250234 0.875009 -0.0226091 0.0161312 -0.0496016
185 1 0.187714 0.312789 0.937806 0.00698363 0.021287 -0.043329
186 1 0.125596 0.374844 9.637e-05 -0.0412624 -0.0192756 -0.000120707
187 1 0.185613 0.439523 0.060745 0.0418058 0.00182243 0.0928856
188 1 0.123791 0.376207 0.123794 0.0336458 -0.0336471 0.0336478
189 1 0.188673 0.434139 0.192356 -0.0744076 0.166784 -0.130459
190 1 0.114183 0.379084 0.249765 0.0584761 -0.133732 -0.0493053
191 1 0.187965 0.443498 0.311841 -0.0639541 0.0402487 0.135931
192 1 0.128053 0.369213 0.37071 -0.0977746 0.104282 0.0173134
193 1 0.18575 0.437278 0.437439 -0.032264 0.0857331 0.0995396
194 1 0.123316 0.376564 0.501828 0.0109651 -0.0205807 -0.021245
195 1 0.187507 0.43798 0.562913 -0.00361022 -0.0165538 -0.00325922
196 1 0.124679 0.375275 0.625153 -0.013748 0.0133132 0.0329515
197 1 0.187521 0.437519 0.687534 -0.000255662 0.000841364 -5.00982e-05
198 1 0.124962 0.37506 0.750015 0.000409749 -0.000404056 -0.000690711
199 1 0.187469 0.437614 0.812421 -0.000156063 -0.00110009 0.00203619
200 1 0.125023 0.375132 0.87502 -0.00521127 0.00177736 -0.0214995
201 1 0.187158 0.438318 0.936958 -0.00913414 -0.0153566 0.00897907
202 1 0.124182 0.500947 0.999078 0.00222933 0.00403463 -0.00935103
203 1 0.186698 0.563476 0.0613926 -0.011684 -0.0282799 0.0542965
204 1 0.125155 0.499905 0.125598 0.019277 0.00011963 -0.0412609
205 1 0.18721 0.562195 0.187717 -0.0212869 0.043329 0.00698385
206 1 0.123144 0.500517 0.249577 0.0776423 0.0069489 -0.0305288
207 1 0.187486 0.562789 0.3123 -0.0149337 -0.0151745 0.00536807
208 1 0.124656 0.500278 0.375266 -0.0216836 -0.0159333 0.0245291
209 1 0.187271 0.562509 0.437733 -0.00165174 0.0354047 0.0151426
210 1 0.124656 0.500581 0.500707 -0.00755829 -0.0581913 -0.0613784
211 1 0.18754 0.562668 0.562691 0.00202816 0.0025282 0.0025689
212 1 0.124921 0.500289 0.625299 0.000302493 -0.00081378 -9.12988e-05
213 1 0.187511 0.562629 0.687593 -0.000187903 -8.54938e-05 -0.000442682
214 1 0.124965 0.500127 0.749964 -0.000698718 -0.000615904 0.000841811
215 1 0.187459 0.562678 0.812332 -0.000326072 0.000177454 -0.000522441
216 1 0.124732 0.500379 0.874613 -0.00286758 -0.00202619 0.00168598
217 1 0.187269 0.563065 0.936936 -0.000294838 -0.00127346 0.000671475
218 1 0.124536 0.62556 0.99946 -0.00101919 -0.0053105 0.00441092
219 1 0.187335 0.687631 0.0623494 -0.00108112 -0.000216482 0.00189873
220 1 0.124867 0.624981 0.125025 -0.0017772 0.0214991 -0.00521113
221 1 0.18749 0.687393 0.187493 -0.00290841 0.00433707 0.000577886
222 1 0.124772 0.624901 0.249972 -0.00697765 0.0219974 -0.0067714
223 1 0.187554 0.687427 0.3124 -8.9222e-05 -0.000425172 -0.000220277
224 1 0.124986 0.6249 0.374966 -0.00845646 0.0204716 0.00837534
225 1 0.187498 0.687454 0.437468 -0.00109589 0.00101294 0.000290787
226 1 0.124934 0.625113 0.500115 0.000339297 -0.00158776 -0.00111226
227 1 0.187485 0.687495 0.562548 0.000245267 3.35443e-05 8.54765e-06
228 1 0.124974 0.625092 0.625074 -0.000253029 0.00122439 0.0012307
229 1 0.187473 0.687497 0.687485 -0.000113383 6.28853e-05 -8.15899e-05
230 1 0.124931 0.62513 0.749929 -7.9887e-05 1.04146e-06 -6.56325e-05
231 1 0.187425 0.687614 0.812301 0.000185623 -0.000824015 0.000125534
232 1 0.124792 0.625324 0.874641 0.000959726 -0.00213419 0.00122882
233 1 0.187357 0.687741 0.93719 0.000583276 0.000448688 -0.000770871
234 1 0.124849 0.750049 0.999826 -0.00116295 -0.00108999 7.35321e-05
235 1 0.18746 0.812441 0.0623881 0.00045793 -0.000691391 -0.0012873
236 1 0.124938 0.749986 0.124965 0.000404072 0.000690703 0.0004098
237 1 0.187501 0.812457 0.187428 0.00127259 0.00857432 0.000604015
238 1 0.125028 0.749998 0.249989 9.43327e-05 -0.000785485 0.000172817
239 1 0.187632 0.812571 0.312423 -0.00171687 0.000662191 0.000645105
240 1 0.125098 0.749976 0.374915 -0.000698661 0.00011422 -0.000110353
241 1 0.187483 0.812397 0.437523 -0.000299733 0.00188902 -0.00250473
242 1 0.124987 0.749926 0.5 -0.00103689 0.00061007 -0.00116248
243 1 0.187428 0.812291 0.562613 0.0012551 -0.00096942 0.00054605
244 1 0.124933 0.749917 0.625014 0.000502879 -0.000441432 0.000468786
245 1 0.187418 0.812322 0.687504 0.000425272 -0.000350953 -0.000728818
246 1 0.124887 0.749963 0.749879 0.000458488 -0.000428589 -0.000362511
247 1 0.18741 0.812352 0.812317 0.000491621 -0.00099433 -0.00107107
248 1 0.124831 0.750028 0.874749 0.000461915 -0.000436698 -0.000627018
249 1 0.187395 0.812326 0.937234 0.000265502 -0.000347033 -0.00101902
250 1 0.12473 0.874608 0.999599 -8.95765e-05 -0.00200615 -0.000766186
251 1 0.187459 0.936907 0.0617226 -0.0101071 -0.00723449 0.00692736
252 1 0.124723 0.874848 0.124682 -0.0133132 -0.0329515 -0.0137479
253 1 0.187262 0.936217 0.1871 -0.00234763 0.141277 -0.00927511
254 1 0.124935 0.875168 0.250102 -0.017703 -0.0543767 0.0126679
255 1 0.187787 0.937765 0.312302 -0.0165654 -0.0071987 0.00487715
256 1 0.125205 0.875183 0.374855 -0.00640254 -0.0270855 0.00596448
257 1 0.187028 0.936827 0.438311 -0.00718129 0.0431479 -0.05938
258 1 0.124746 0.87463 0.500259 -0.000834269 0.00888633 -0.00834335
259 1 0.187374 0.937129 0.562783 -0.00170208 -0.00263533 0.00260433
260 1 0.124864 0.874757 0.625099 0.000177995 -0.000505363 -0.000189361
261 1 0.18739 0.937191 0.687628 0.00143365 -0.00110727 5.76198e-05
262 1 0.124848 0.874755 0.749899 0.000789362 -0.001455 -0.000475977
263 1 0.187411 0.937145 0.812248 -4.96148e-05 -0.00218049 -0.00153394
264 1 0.124766 0.874671 0.874666 0.00120095 -0.00153291 -0.00156957
265 1 0.187332 0.936876 0.936919 0.00246753 -0.00501888 -0.00605343
266 1 0.250078 0.998949 0.999026 -0.000153059 0.0321263 0.024244
267 1 0.314532 0.0606987 0.060569 0.00703798 -0.0270957 0.00461695
268 1 0.251466 0.998769 0.123414 -0.0172436 0.00905169 0.0332032
269 1 0.3099 0.0665755 0.190899 0.0477171 -0.236153 -0.131225
270 1 0.250646 0.99906 0.249715 -0.00790938 -0.227778 -0.00643547
271 1 0.315465 0.0525489 0.314899 0.0525949 0.0370381 0.072493
272 1 0.24909 0.998713 0.376284 0.0116894 0.017563 -0.0238429
273 1 0.314949 0.0613855 0.43846 -0.000586772 -0.0777732 0.0787743
274 1 0.250212 0.999366 0.500529 0.000552433 0.0195355 -0.0148277
275 1 0.312687 0.0615008 0.563174 0.00443803 0.0150558 0.0109269
276 1 0.24997 0.999488 0.625413 0.00273145 -0.000220578 0.000703715
277 1 0.31256 0.0622713 0.687617 -0.000475092 -0.00120019 0.0011705
278 1 0.249992 0.999758 0.74998 0.00110384 -0.00108117 -0.00105915
279 1 0.312608 0.0622478 0.812355 0.00340251 -0.00161724 -0.00457093
280 1 0.250108 0.999405 0.874485 -0.00077952 -0.00216627 -0.00227014
281 1 0.313293 0.061386 0.936624 0.00958168 0.00901043 -0.0154548
282 1 0.251145 0.122559 0.997542 -0.00521389 0.0567024 0.060942
283 1 0.311501 0.189345 0.0635316 -0.0860256 0.0770204 0.0144582
284 1 0.251302 0.11822 0.116361 -0.016674 0.0776382 0.0333338
285 1 0.31686 0.188186 0.185364 -0.0957426 0.0173875 0.165052
286 1 0.250234 0.117887 0.380797 -0.0238865 0.0478049 -0.0255483
287 1 0.314896 0.184533 0.447452 0.0724918 -0.0525939 -0.0370382
288 1 0.248954 0.123137 0.501317 0.0112373 0.0423182 -0.0077785
289 1 0.312885 0.186882 0.563969 0.000601143 -0.00763698 -0.131532
290 1 0.249911 0.124585 0.625006 -0.0137207 -0.0171708 0.0514646
291 1 0.312536 0.18734 0.687597 -0.000798168 0.0011847 -0.00963038
292 1 0.24997 0.124847 0.749998 0.000787768 -0.00122805 -0.00094476
293 1 0.312442 0.187412 0.812556 0.0037332 -2.99589e-05 -0.00369965
294 1 0.250056 0.124508 0.874817 0.0223661 -0.0190963 -0.0386213
295 1 0.312696 0.187205 0.937306 0.0119842 -0.00279674 -0.0372335
296 1 0.249209 0.248572 0.998696 0.00381508 0.0535757 0.128539
297 1 0.311838 0.312034 0.0565031 0.135935 0.0639592 -0.0402502
298 1 0.250016 0.249982 0.250019 -0.0581408 0.0581433 -0.0581444
299 1 0.311813 0.314637 0.316863 -0.0173877 -0.165052 -0.0957419
300 1 0.307792 0.307926 0.433264 0.137912 0.187251 0.215743
301 1 0.249712 0.249352 0.500942 -0.00643558 0.00790932 0.22778
302 1 0.312299 0.312212 0.562236 0.00487698 0.0165655 0.00719893
303 1 0.249947 0.249838 0.624851 -0.000983752 0.00113478 0.0735251
304 1 0.31242 0.312366 0.68743 0.000645095 0.00171688 -0.000662187
305 1 0.249938 0.249924 0.750022 0.000370958 0.000604475 -0.00106103
306 1 0.312398 0.312445 0.812574 -0.000220234 8.92283e-05 0.000425154
307 1 0.249858 0.249857 0.87516 0.0109269 0.0106242 -0.0604207
308 1 0.312297 0.312513 0.937212 0.0053681 0.0149338 0.0151743
309 1 0.249575 0.376855 0.999484 -0.030529 -0.0776435 -0.00694866
310 1 0.314832 0.439256 0.0610636 -0.0325039 0.0401267 0.0361035
311 1 0.249762 0.385815 0.120917 -0.0493046 -0.0584747 0.13373
312 1 0.316346 0.449022 0.184371 0.0340368 0.00436323 -0.0865688
313 1 0.310653 0.43647 0.311503 -0.0770188 -0.0144581 -0.0860274
314 1 0.249643 0.379762 0.379029 -0.0798129 -0.118824 -0.0511661
315 1 0.313568 0.438257 0.438077 -0.0126907 -0.0517323 0.00307114
316 1 0.251094 0.376127 0.500684 -0.00365057 -0.0388752 0.0243206
317 1 0.312986 0.438178 0.563133 -0.00385827 -0.0606188 -0.0622899
318 1 0.250099 0.375064 0.624833 0.0126679 0.0177029 0.0543767
319 1 0.312549 0.437483 0.687564 -0.000490012 -0.00239627 -0.00333712
320 1 0.249987 0.37497 0.750003 0.000172805 -9.4334e-05 0.000785508
321 1 0.312518 0.437525 0.8125 0.000442711 0.000410281 -0.000355658
322 1 0.249969 0.375226 0.875101 -0.00677133 0.00697783 -0.0219978
323 1 0.312734 0.437979 0.937353 0.00406413 0.022386 -0.03459
324 1 0.250006 0.501096 0.999228 0.00571044 -0.0493616 0.026059
325 1 0.312573 0.563277 0.0615726 0.0144303 0.0186711 0.0200654
326 1 0.248472 0.502215 0.123702 0.0535555 -0.0712189 -0.0213756
327 1 0.313304 0.564343 0.186826 0.0192976 -0.10826 -0.0073691
328 1 0.251426 0.501305 0.249211 -0.0535749 -0.128538 0.00381485
329 1 0.312793 0.562695 0.312699 0.00279667 0.0372336 0.0119843
330 1 0.250481 0.501128 0.37622 0.0200896 -0.0399018 -0.0473782
331 1 0.312866 0.562952 0.438037 -0.00332149 -0.00196361 -0.00325231
332 1 0.249824 0.499968 0.500073 -0.00503589 0.00117377 -0.0124257
333 1 0.31253 0.56256 0.562584 0.00090094 0.00278232 0.00218547
334 1 0.250057 0.500205 0.625231 -0.00413718 0.0011413 0.00353408
335 1 0.312567 0.562574 0.687587 -0.00160369 0.000713362 0.00081288
336 1 0.250031 0.500047 0.749994 -0.000471897 -0.000296823 -0.000428655
337 1 0.312569 0.56264 0.812356 -0.00105998 0.000232511 -5.58471e-05
338 1 0.250044 0.500295 0.874752 0.000223712 0.000623273 -0.00172226
339 1 0.312596 0.563095 0.93691 -0.00389525 0.00281129 -0.00109887
340 1 0.24989 0.625506 0.999517 0.00218147 0.00188286 -0.00313542
341 1 0.312494 0.687593 0.062356 -0.000226666 0.00541113 -0.00247929
342 1 0.249765 0.624992 0.124771 -0.0161313 0.0496012 -0.0226091
343 1 0.312635 0.68761 0.187363 -0.000295098 -0.00617182 -0.000614329
344 1 0.250142 0.624842 0.249861 -0.0106241 0.0604207 0.0109268
345 1 0.312586 0.687445 0.312445 2.98951e-05 0.00369967 0.00373317
346 1 0.250011 0.62496 0.375064 0.00643594 0.017107 0.00897022
347 1 0.312531 0.687526 0.437561 -0.000286941 0.000111013 0.000881233
348 1 0.249951 0.625044 0.500085 -0.000564671 0.00312314 0.00111612
349 1 0.3125 0.687469 0.562578 -3.91605e-05 0.00154208 0.000613303
350 1 0.25004 0.625047 0.625079 3.97396e-05 -0.000464211 -0.00055953
351 1 0.312534 0.687468 0.687517 0.00022188 -0.000151486 -0.000360667
352 1 0.250017 0.625081 0.74995 -0.000170189 -0.000120312 -0.00023905
353 1 0.312542 0.687588 0.812326 3.17824e-05 -0.000655903 -0.00024706
354 1 0.249959 0.6253 0.874666 -0.000308871 -0.00128639 0.000531216
355 1 0.312532 0.687729 0.937195 8.44185e-05 0.000388579 -0.000941376
356 1 0.249964 0.75002 0.999843 0.000210841 3.88248e-05 -0.00025704
357 1 0.312594 0.812385 0.0623661 0.000951605 0.00195929 0.000870225
358 1 0.249991 0.749998 0.124938 -0.000276898 0.000983345 -0.000851282
359 1 0.31258 0.812533 0.187478 0.00167546 0.000141898 -0.00185146
360 1 0.250075 0.74998 0.249941 -0.000604488 0.00106105 0.000370969
361 1 0.312659 0.812404 0.312538 -0.00118478 0.0096305 -0.000798119
362 1 0.250047 0.749974 0.374967 -0.000751222 -0.00106496 -7.38154e-05
363 1 0.312559 0.812389 0.437598 -0.00103807 -0.00146186 0.00102436
364 1 0.249989 0.749914 0.500037 2.79742e-05 0.000531987 -0.000204393
365 1 0.312528 0.812238 0.562706 -5.69995e-05 0.000488226 -0.000109843
366 1 0.24998 0.74988 0.62506 0.000252993 -1.36685e-05 -9.93512e-05
367 1 0.312525 0.812297 0.687557 0.000563547 -0.000582776 -0.000921246
368 1 0.249982 0.749938 0.749913 0.000391261 -0.00057293 -0.000584351
369 1 0.312555 0.812342 0.812344 0.000541561 -0.00090117 -0.000914684
370 1 0.249971 0.750013 0.874772 0.000366008 -0.000631727 -0.000790477
371 1 0.312589 0.812319 0.937242 -0.000169859 -0.00120735 -0.00112608
372 1 0.250058 0.87458 0.999577 -0.00248549 -0.00175778 -0.00222704
373 1 0.313172 0.936694 0.0615443 0.0114013 0.0250833 0.0456714
374 1 0.250181 0.875078 0.124752 0.0129321 -0.0540996 -0.0195189
375 1 0.312753 0.937484 0.187461 0.0104294 -0.00177114 -0.00983519
376 1 0.25016 0.87515 0.24995 -0.00113491 -0.0735245 -0.000983717
377 1 0.313116 0.936032 0.312888 0.00763677 0.131532 0.00060119
378 1 0.25 0.875079 0.37519 -0.0145511 -0.0517379 0.0177746
379 1 0.312688 0.936929 0.438287 0.00842228 -0.0199278 -0.0104734
380 1 0.249981 0.874614 0.500331 0.00348505 -0.00191106 0.000890533
381 1 0.312588 0.936908 0.56303 -0.00302013 -0.00159359 0.000886545
382 1 0.249936 0.874683 0.625204 0.00068446 0.00018991 -0.0013385
383 1 0.312564 0.937155 0.687693 0.000207274 -0.000851373 -0.0011803
384 1 0.249981 0.874744 0.749947 0.000414871 -0.00113783 -0.00110326
385 1 0.312627 0.937158 0.812279 0.000204318 -0.00166933 -0.00182859
386 1 0.250015 0.874679 0.874695 0.000883475 -0.00141321 -0.000965185
387 1 0.312759 0.936947 0.936986 0.00367275 -0.00665347 -0.00529452
388 1 0.375826 0.99909 0.999234 0.0031055 -0.00572423 -0.011949
389 1 0.438098 0.0617272 0.0618203 -0.0354653 0.071964 0.0919097
390 1 0.374507 0.00033224 0.125813 0.00577572 -0.0215658 -0.0253715
391 1 0.43883 0.0612933 0.186305 0.00126179 0.0463782 0.000980138
392 1 0.376861 0.998684 0.248957 -0.042318 0.00777818 0.0112372
393 1 0.438613 0.0615416 0.314951 0.0777732 -0.0787741 -0.000586121
394 1 0.376923 0.997749 0.376778 -0.0153293 0.06264 -0.0134302
395 1 0.436853 0.0631455 0.436856 0.0817612 -0.0817614 0.0817618
396 1 0.375947 0.998625 0.501338 0.00379921 0.0786464 -0.0810175
397 1 0.438442 0.0615255 0.563418 -0.0060198 0.00601958 0.0148521
398 1 0.375295 0.999439 0.625517 -0.00135531 0.00109008 -0.00284469
399 1 0.437762 0.0622325 0.68777 0.000478462 -0.000228049 0.00118712
400 1 0.375139 0.99976 0.750013 0.00166552 -0.000815732 -0.000673689
401 1 0.437667 0.0623619 0.812419 0.000807423 -0.000206687 -0.00258507
402 1 0.375429 0.999495 0.874535 0.00211128 0.00100269 0.000228712
403 1 0.437744 0.062325 0.93726 0.000700409 -0.000751881 -0.00412395
404 1 0.375108 0.125096 0.999776 -0.0401862 0.0124949 0.0133732
405 1 0.438074 0.18643 0.0617443 0.00307137 0.0126905 0.051732
406 1 0.375193 0.124162 0.12486 0.106594 0.0220274 -0.0310432
407 1 0.433262 0.192206 0.192075 0.215743 -0.137911 -0.18725
408 1 0.382111 0.119204 0.250236 -0.0478046 0.0255483 -0.0238855
409 1 0.447449 0.185102 0.315468 -0.0370379 -0.0724937 0.0525958
410 1 0.369982 0.130016 0.369985 0.258699 -0.2587 0.258701
411 1 0.438457 0.18505 0.438616 0.0787739 0.000586545 0.0777736
412 1 0.376775 0.123076 0.502252 -0.0134308 0.0153295 -0.0626402
413 1 0.438285 0.18731 0.563072 -0.0104737 -0.00842233 0.0199276
414 1 0.375395 0.124537 0.625294 0.0140249 -0.0138033 0.02998
415 1 0.437595 0.187439 0.687612 0.00102433 0.00103802 0.00146182
416 1 0.375071 0.124885 0.750039 0.000392375 0.000243546 0.0003413
417 1 0.437558 0.187467 0.812475 0.000881243 0.000286861 -0.000111036
418 1 0.375154 0.124832 0.874815 0.00175041 -0.00034028 -0.00808011
419 1 0.438034 0.187132 0.937049 -0.0032526 0.00332149 0.00196401
420 1 0.376217 0.249517 0.998873 -0.0473791 -0.0200896 0.039903
421 1 0.437436 0.314249 0.0627235 0.0995403 0.0322639 -0.0857342
422 1 0.379026 0.250355 0.120239 -0.0511683 0.0798133 0.118827
423 1 0.447217 0.314977 0.185436 -0.072918 0.0694998 -0.0655662
424 1 0.433423 0.309102 0.309903 0.236152 0.131225 0.0477169
425 1 0.380794 0.249765 0.382114 -0.025548 0.0238858 -0.0478044
426 1 0.438705 0.313696 0.438833 -0.0463776 -0.000980052 0.00126188
427 1 0.376282 0.250908 0.501288 -0.0238434 -0.0116895 -0.0175629
428 1 0.438308 0.31297 0.563174 -0.0593799 0.0071812 -0.0431478
429 1 0.375187 0.249998 0.624922 0.0177745 0.0145511 0.0517379
430 1 0.43752 0.312516 0.687604 -0.00250476 0.000299713 -0.00188907
431 1 0.374964 0.249951 0.750027 -7.38063e-05 0.000751172 0.00106493
432 1 0.437465 0.312501 0.812547 0.000290854 0.00109586 -0.00101302
433 1 0.375061 0.249987 0.875041 0.0089703 -0.00643599 -0.0171072
434 1 0.43773 0.312728 0.937492 0.0151428 0.0016518 -0.0354052
435 1 0.375263 0.375343 0.999723 0.0245294 0.0216838 0.0159343
436 1 0.436792 0.436805 0.062998 0.046849 0.0685538 -0.0441109
437 1 0.370707 0.371945 0.130788 0.0173171 0.0977773 -0.104284
438 1 0.439344 0.439209 0.18558 0.0229872 0.0554078 0.00500885
439 1 0.381778 0.38364 0.251305 -0.077638 -0.0333331 -0.0166738
440 1 0.4393 0.439432 0.314535 0.0270966 -0.00461628 0.00703858
441 1 0.375836 0.375142 0.375196 -0.0220274 0.0310426 0.106594
442 1 0.438271 0.438181 0.4381 -0.0719636 -0.0919097 -0.0354653
443 1 0.373783 0.373877 0.498978 0.0574006 0.0432258 0.0603981
444 1 0.437188 0.437191 0.562346 0.000601882 -0.000919093 -0.000922979
445 1 0.374852 0.374793 0.624818 0.00596445 0.00640254 0.0270854
446 1 0.437388 0.437384 0.687513 0.00104977 0.00106148 0.00468809
447 1 0.374912 0.3749 0.750025 -0.000110296 0.000698673 -0.000114246
448 1 0.437465 0.437448 0.812491 0.000392653 0.000780157 -0.00117035