ITEM: TIMESTEP
0
ITEM: NUMBER OF ATOMS
1026
ITEM: BOX BOUNDS pp pp pp
0.0000000000000000e+00 2.2857118000000000e+01
0.0000000000000000e+00 2.2857118000000000e+01
0.0000000000000000e+00 2.2857118000000000e+01
ITEM: ATOMS id type xs ys zs fx fy fz
1 1 0.236857 0.229809 0.126555 0.244142 -0.0700178 -0.107724
2 1 0.289181 0.306536 0.158171 -0.0470356 0.119364 0.113862
3 1 0.221732 0.138888 0.21231 0.144565 0.100733 0.177269
4 1 0.158168 0.210817 0.193465 0.113862 0.0470536 -0.119363
5 1 0.36111 0.287691 0.221735 -0.100741 -0.177266 0.144561
6 1 0.270189 0.373446 0.23686 0.0700383 0.107715 0.244139
7 1 0.286547 0.141175 0.285175 -0.159147 0.150228 -0.0784687
8 1 0.358823 0.214826 0.28655 -0.150226 0.0784689 -0.159148
9 1 0.126552 0.263141 0.270192 -0.10772 -0.244144 0.0700242
10 1 0.193462 0.34183 0.289184 -0.119375 -0.113857 -0.047056
11 1 0.285172 0.213451 0.358826 -0.0784671 0.159145 -0.150228
12 1 0.212307 0.278266 0.361113 0.177269 -0.144569 -0.100729
13 1 0.999674 0.999886 0.999853 -0.00571273 -0.00587915 -0.00601442
14 1 0.062469 0.0627528 0.0626754 0.00239858 0.0161025 -0.0111701
15 1 0.999715 0.999581 0.124802 0.012358 0.0146479 -0.00734262
16 1 0.0626821 0.0624882 0.186481 -0.0827817 -0.0975929 -0.0211038
17 1 4.171e-05 0.999963 0.249946 -0.0148002 0.000657118 0.000705535
18 1 0.0619883 0.0621781 0.313408 0.0366227 -0.000142676 0.000728535
19 1 0.999878 0.999774 0.37526 -0.0226371 -0.00528478 0.0059725
20 1 0.0619393 0.0619763 0.4382 0.0845501 0.0243348 -0.0568276
21 1 0.999741 0.999624 0.500339 0.00978221 0.000641337 -0.00419399
22 1 0.0625715 0.0624932 0.562597 -0.00353792 -0.00317885 0.00454635
23 1 0.999931 0.999875 0.625072 -0.00115573 -0.0014107 0.00276283
24 1 0.0624121 0.0623906 0.687567 -0.000284623 -0.000637909 0.00329966
25 1 0.999821 0.999825 0.749887 -0.000587454 -0.00105479 0.00126274
26 1 0.0622583 0.0622727 0.812267 -0.000882085 -0.00130433 -0.00144359
27 1 0.999496 0.99955 0.87448 0.00279142 0.00127595 -0.000554717
28 1 0.0615831 0.0615788 0.936539 0.00700958 0.00512155 -0.00912093
29 1 0.998729 0.124054 0.998652 0.0411741 -0.000113968 0.0449532
30 1 0.060427 0.185243 0.0603579 0.0655397 0.0484278 0.00185957
31 1 0.000140902 0.125037 0.1251 -0.0320274 -0.0244316 -0.00980332
32 1 0.0587436 0.189396 0.188651 -0.0338615 -0.12512 -0.06662
33 1 0.998824 0.123918 0.250193 0.0696805 0.0754684 0.0105935
34 1 0.0616265 0.186999 0.312667 -0.100929 0.0910798 0.0922822
35 1 0.999501 0.124636 0.375401 -0.0146059 0.00485163 0.003757
36 1 0.0612146 0.186187 0.438686 -0.0044409 0.00396544 0.0335986
37 1 0.999447 0.124434 0.500698 -0.0115544 0.000502402 -0.00129565
38 1 0.0615883 0.186864 0.563369 0.0465628 -0.00388131 -0.0367539
39 1 0.999602 0.12463 0.625441 0.00529841 -0.000777364 -0.00546405
40 1 0.0623696 0.187409 0.687633 0.00148151 -0.000970605 -0.0023436
41 1 0.999832 0.124912 0.749997 -7.3763e-06 -0.00180017 -0.000443964
42 1 0.0623724 0.187497 0.812435 -0.00116467 -0.000836889 -0.00497723
43 1 0.999544 0.12479 0.874529 -0.000349222 -0.0014742 -0.00185176
44 1 0.0617191 0.187405 0.936879 0.00306937 -0.0170873 -0.0317459
45 1 0.998879 0.249979 0.998565 0.0368895 -0.00283908 0.0575109
46 1 0.0599191 0.314886 0.0596123 0.063679 -0.0274241 -0.0429433
47 1 0.999452 0.250179 0.123156 -0.0207509 0.0186951 0.0371879
48 1 0.0644439 0.308732 0.186734 0.0322291 0.0380857 0.0202114
49 1 3.64569e-05 0.250852 0.25134 -0.071655 0.0122625 -0.0292978
50 1 0.0554653 0.316549 0.315374 0.160546 -0.00765874 0.0690504
51 1 0.998206 0.24986 0.376862 0.0741488 -0.00828191 -0.049592
52 1 0.0610256 0.314274 0.439721 -0.0306444 -0.00895558 -0.0315921
53 1 0.999266 0.249905 0.500901 0.00636353 -0.000700116 -0.0166818
54 1 0.0616795 0.312565 0.563346 0.0207497 0.00618655 -0.022453
55 1 0.99956 0.249925 0.625444 -0.00277091 0.00178588 0.00348884
56 1 0.0623843 0.312541 0.687589 -0.00142057 -0.000768982 0.000656706
57 1 0.999843 0.250024 0.749991 -0.000168411 -0.000670316 0.000440241
58 1 0.0623489 0.312647 0.812373 0.00166361 0.00111793 -0.000250966
59 1 0.999546 0.250071 0.874513 -0.00295436 -0.00302604 -0.00116843
60 1 0.0614818 0.313225 0.936553 0.0278714 0.0120362 0.00709057
61 1 0.998672 0.376102 0.998619 -0.00667146 -0.00514057 0.000936455
62 1 0.0608885 0.43911 0.0608913 0.0376715 -0.0376725 0.0376705
63 1 0.999374 0.374887 0.124599 0.0339779 0.0200372 0.0434156
64 1 0.0596096 0.440079 0.185116 -0.0429433 -0.0636771 0.0274236
65 1 0.997737 0.376123 0.248635 0.130925 0.0374186 0.0276131
66 1 0.0603551 0.439571 0.314758 0.00186035 -0.0655404 -0.0484277
67 1 0.997892 0.376688 0.376904 0.0104201 -0.00135091 0.00109645
68 1 0.0626726 0.437529 0.437248 -0.0111674 -0.00240056 -0.0161048
69 1 0.998935 0.375995 0.501198 0.022898 0.00554631 -0.0205679
70 1 0.0616384 0.438502 0.563453 0.0103457 -0.00672562 0.00221847
71 1 0.999553 0.375285 0.625443 -0.00198322 0.000398229 0.00377193
72 1 0.0623297 0.437732 0.687679 -0.00104298 0.00147882 0.00152071
73 1 0.999816 0.375148 0.749956 -0.000417392 0.000902604 0.00131941
74 1 0.0623924 0.437666 0.812353 -0.000125556 0.000917696 -0.00229758
75 1 0.999455 0.375432 0.874426 -1.3081e-05 0.00203407 -0.00119183
76 1 0.0621115 0.437929 0.936893 -0.00287994 0.00286491 -0.00297633
77 1 0.999044 0.500955 0.999046 0.00462239 -0.00462257 0.00462224
78 1 0.062069 0.563108 0.0621143 -0.00286476 0.00297629 -0.00287991
79 1 0.998617 0.501326 0.1239 0.000937017 0.00667101 0.0051409
80 1 0.0616895 0.563033 0.187257 -0.00612391 0.0158661 -0.0136438
81 1 0.998562 0.50112 0.250022 0.0575111 -0.0368896 0.00283889
82 1 0.0620638 0.562697 0.312791 -0.0201423 0.0309826 0.0103042
83 1 0.99865 0.501269 0.375947 0.0449516 -0.0411724 0.000113953
84 1 0.0625378 0.562558 0.437598 -0.002322 0.0171689 -0.000377423
85 1 0.99985 0.500325 0.500115 -0.00601421 0.00571276 0.00587903
86 1 0.0623601 0.562743 0.562706 -0.00392761 0.000213153 0.000960267
87 1 0.999595 0.500529 0.62545 0.00341624 -0.00174793 -0.00112434
88 1 0.0623952 0.562744 0.687609 0.000639074 5.24628e-05 0.000301412
89 1 0.999821 0.500233 0.749985 -0.000745697 0.00104086 -0.000404121
90 1 0.0623077 0.562776 0.812246 -0.000923348 0.000331386 -3.20083e-05
91 1 0.999644 0.50036 0.874577 -0.00101211 0.000737375 -0.00350777
92 1 0.0619007 0.563237 0.936744 0.00443887 -0.00307873 0.00150124
93 1 0.999638 0.625424 0.999647 -0.000737305 0.00350775 -0.00101203
94 1 0.062332 0.687648 0.0623952 -0.000917662 0.00229754 -0.000125579
95 1 0.999587 0.62542 0.124759 -0.00159215 0.00316447 -0.00341035
96 1 0.0623627 0.687593 0.18748 0.000412533 -0.00103064 -5.28636e-05
97 1 0.999683 0.625277 0.250072 -0.00162972 0.0026068 0.000258052
98 1 0.0624693 0.687512 0.312534 0.000279187 0.000428668 0.00122335
99 1 0.9998 0.625233 0.375198 0.00115023 -0.00100549 0.00193981
100 1 0.0625847 0.687489 0.437448 -0.000258738 0.00120571 0.000198971
101 1 0.999995 0.625146 0.500065 0.000313722 0.0016216 0.000803356
102 1 0.0624618 0.687536 0.562538 -0.00069354 -0.0003485 -0.000724953
103 1 0.999883 0.625166 0.625068 -0.000876379 -0.000480702 -0.000187432
104 1 0.0624098 0.687549 0.687451 0.000355513 -0.000178193 -5.95018e-05
105 1 0.999821 0.625212 0.749899 0.000323743 -8.48406e-05 0.000251394
106 1 0.0623076 0.687677 0.812249 0.000921983 -0.00022972 -0.000129435
107 1 0.999635 0.625397 0.874577 0.00148844 -0.000866271 0.000278958
108 1 0.0622012 0.687794 0.937148 -0.00012749 -0.000747252 0.000153982
109 1 0.999765 0.750017 0.999824 -0.00104082 0.000404109 -0.000745657
110 1 0.0622667 0.812322 0.0623325 -0.00147873 -0.00152061 -0.00104289
111 1 0.999852 0.75004 0.124968 -0.000184502 -0.000807347 -0.000409904
112 1 0.0624564 0.812441 0.187543 -0.00153071 -0.000461479 0.000654071
113 1 0.999934 0.750005 0.25005 -0.000192689 0.000381577 -3.13284e-05
114 1 0.0625107 0.812424 0.312566 0.00277373 0.00327379 0.000311369
115 1 0.999985 0.749975 0.375055 0.00110168 0.000546419 0.00141537
116 1 0.0626199 0.812477 0.437388 -0.000840792 -0.00467126 0.00099708
117 1 5.98683e-05 0.749995 0.499947 -0.000556207 -0.00134085 0.000726598
118 1 0.0623724 0.812312 0.562567 0.000118757 0.00183955 -0.00187816
119 1 0.999905 0.74996 0.624988 0.000156803 0.000193478 -0.000554104
120 1 0.0623623 0.812368 0.687452 0.000325927 -0.000192372 -3.44031e-05
121 1 0.999819 0.750014 0.749843 0.000794343 -0.000145166 -0.000294109
122 1 0.0622887 0.812383 0.81229 0.00106553 -0.000491533 -0.00047133
123 1 0.999719 0.750057 0.87472 0.000671078 -0.000603205 -2.27619e-05
124 1 0.0622205 0.812324 0.937201 0.000548311 -0.00145172 -0.000977952
125 1 0.99947 0.874551 0.999598 0.00174779 0.00112409 0.0034161
126 1 0.0614967 0.936548 0.0616412 0.00672525 -0.00221918 0.0103453
127 1 0.999653 0.874663 0.124931 -0.000236206 -0.00122078 0.000178957
128 1 0.0618762 0.936848 0.187606 0.0309847 0.0322104 -0.000970767
129 1 0.999736 0.874725 0.25012 -0.0029164 -0.00440739 -0.00316534
130 1 0.061815 0.93684 0.313016 0.058437 0.0622707 -0.00463605
131 1 0.999775 0.874703 0.375247 0.00583805 0.00794982 0.000512018
132 1 0.0627795 0.93763 0.4372 0.000249378 -0.000386301 0.00130306
133 1 7.63533e-05 0.874957 0.499909 -0.0013081 -0.00196113 0.00108611
134 1 0.0623022 0.937211 0.562682 -0.00113625 -0.00212683 0.00345128
135 1 0.999884 0.874835 0.625015 -0.000289925 -0.000923986 0.00106783
136 1 0.06227 0.937225 0.68759 0.000767124 0.000935969 -0.00175758
137 1 0.999771 0.874796 0.74987 0.000723568 -1.28474e-05 -0.000387961
138 1 0.0622196 0.937167 0.812229 0.000559493 -0.000674641 -0.000602226
139 1 0.999599 0.874711 0.874666 0.000337701 0.00142531 0.00169147
140 1 0.0618614 0.936891 0.936912 -0.000855361 0.00408668 0.00420468
141 1 0.124003 0.998803 0.998938 -0.00554633 0.0205691 0.0228998
142 1 0.185724 0.0602799 0.0610284 0.00895534 0.0315942 -0.0306428
143 1 0.12297 0.99781 0.123099 0.0137784 -0.0389207 0.0179861
144 1 0.184576 0.0518559 0.184703 -0.057482 0.00555492 -0.0837697
145 1 0.123753 0.999391 0.251249 0.0443888 -0.0524565 0.00127257
146 1 0.191934 0.0662826 0.308155 -0.216319 -0.172968 0.129924
147 1 0.126022 0.000942478 0.373841 -0.0312132 -0.0536833 0.0494967
148 1 0.186239 0.0609733 0.438918 0.00258892 -0.0202199 -0.0318416
149 1 0.124508 0.99945 0.500453 -0.00672728 -0.0128328 0.0161116
150 1 0.186897 0.0614446 0.563302 -0.00127667 0.0341867 -0.0221141
151 1 0.124649 0.999535 0.6254 0.000658536 0.00538467 -0.00614921
152 1 0.187383 0.06227 0.687641 -0.000471077 0.000931099 -0.0011743
153 1 0.124846 0.999762 0.749973 -0.000498793 -0.000482558 -0.000391632
154 1 0.187372 0.0622536 0.812394 0.000709075 -0.00229136 -0.00378424
155 1 0.124661 0.999431 0.874499 0.00113555 -0.000384158 -9.16802e-06
156 1 0.187174 0.0614144 0.936764 -0.00752361 -0.00255671 -0.022918
157 1 0.12331 0.123097 0.997895 0.00135057 -0.00109639 0.0104198
158 1 0.18345 0.184627 0.0554679 0.00765568 -0.06905 0.160543
159 1 0.12834 0.126726 0.12733 -0.145944 -0.039912 -0.0477074
160 1 0.120696 0.123185 0.249827 0.10795 0.260961 -0.0676433
161 1 0.185992 0.18286 0.311331 0.194172 0.0901079 0.029618
162 1 0.125186 0.124772 0.37604 -0.0179968 -0.103132 -0.0517661
163 1 0.190726 0.189487 0.433987 -0.159568 0.0273012 0.168118
164 1 0.125637 0.125549 0.499703 -0.0117805 -0.00354849 0.0196108
165 1 0.187522 0.187291 0.562514 -0.011712 -0.00626187 -1.81989e-05
166 1 0.12498 0.124895 0.625057 -0.00472576 -0.00380466 0.0214707
167 1 0.187489 0.187429 0.687475 -0.00139849 -0.0010958 -0.000538916
168 1 0.124914 0.124908 0.749987 0.00016771 0.00036498 0.000410142
169 1 0.187369 0.187392 0.812473 -2.86953e-05 0.00105323 0.00202925
170 1 0.124627 0.124649 0.87475 -0.0135273 -0.0141427 -0.028296
171 1 0.186921 0.186953 0.936645 -0.00101758 -0.00999263 0.0120023
172 1 0.123875 0.251366 0.997739 -0.0374193 -0.0276144 0.130926
173 1 0.191266 0.313267 0.0644468 -0.0380882 -0.0202082 0.0322247
174 1 0.119896 0.251917 0.112562 0.0304649 0.135358 -0.0705001
175 1 0.183527 0.316471 0.18353 0.0593272 -0.059334 0.0593425
176 1 0.117554 0.250192 0.37916 -0.0971195 -0.0355956 -0.108872
177 1 0.1847 0.315423 0.448145 -0.083769 0.0574811 -0.00554873
178 1 0.123407 0.248573 0.501134 0.0558048 0.0246135 0.00639674
179 1 0.187155 0.312751 0.563911 -0.00904752 0.00289589 -0.179536
180 1 0.124773 0.249824 0.624935 -0.0178013 -0.0149075 0.0566793
181 1 0.187439 0.312503 0.687555 0.00147921 -0.00171002 -0.00866582
182 1 0.124944 0.250006 0.750001 7.38871e-05 -0.000580234 0.000798382
183 1 0.187487 0.312519 0.812601 0.00136628 0.00195665 -0.00436784
184 1 0.124823 0.250202 0.874971 -0.0119304 0.00942912 -0.0268545
185 1 0.187753 0.312776 0.937874 0.0179492 0.0189104 -0.0550996
186 1 0.125111 0.375402 0.999377 -0.0200376 -0.0434148 0.0339789
187 1 0.185113 0.440389 0.0599219 0.0274244 0.0429429 0.0636759
188 1 0.122717 0.377281 0.12272 0.0511043 -0.0511073 0.0511089
189 1 0.186731 0.435554 0.191269 0.0202144 -0.0322317 -0.0380793
190 1 0.112559 0.380103 0.248084 -0.0705012 -0.0304687 -0.135355
191 1 0.188648 0.441255 0.310605 -0.0666254 0.0338649 0.125124
192 1 0.127328 0.371659 0.373275 -0.0477049 0.145941 0.0399085
193 1 0.186478 0.437316 0.437513 -0.0211034 0.0827814 0.0975929
194 1 0.123096 0.377029 0.502191 0.0179865 -0.0137787 0.0389224
195 1 0.187603 0.438122 0.563153 -0.000970983 -0.0309857 -0.0322117
196 1 0.124688 0.375318 0.625208 -0.0136242 0.0156024 0.0339291
197 1 0.18754 0.437542 0.68756 0.000654104 0.00153075 0.000461524
198 1 0.124961 0.375071 0.750013 0.000298872 5.88804e-05 -0.000238319
199 1 0.187478 0.437636 0.812408 -5.28525e-05 -0.00041256 0.00103075
200 1 0.125004 0.375163 0.874939 -0.00150517 0.000740491 -0.0139715
201 1 0.187254 0.438309 0.936969 -0.0136437 0.00612339 -0.0158652
202 1 0.123897 0.501382 0.998675 0.00514081 -0.000936487 -0.006671
203 1 0.186774 0.563448 0.0614845 -0.012036 -0.00708901 0.0278692
204 1 0.124596 0.500625 0.125114 0.0434165 -0.0339799 -0.0200354
205 1 0.187222 0.562127 0.187756 -0.01891 0.0550999 0.0179492
206 1 0.123153 0.500547 0.249822 0.0371883 0.0207482 -0.018696
207 1 0.187638 0.562419 0.312096 -0.0101244 0.00852201 0.000160865
208 1 0.125097 0.499857 0.374964 -0.00980363 0.0320298 0.0244321
209 1 0.187265 0.562576 0.437704 -0.00294789 0.0202213 0.00980139
210 1 0.124799 0.500283 0.50042 -0.00734294 -0.0123559 -0.0146459
211 1 0.187533 0.562617 0.562632 0.0012489 0.000668915 0.000136907
212 1 0.124928 0.500345 0.625338 0.000178955 0.000236104 0.00122069
213 1 0.187523 0.56265 0.687599 -8.22491e-05 0.000534892 -0.000146878
214 1 0.124966 0.500146 0.749961 -0.000409915 0.000184511 0.000807399
215 1 0.187471 0.562704 0.812312 -0.000292449 0.000811499 -0.00117555
216 1 0.124756 0.500412 0.874581 -0.00341042 0.00159218 -0.00316446
217 1 0.187258 0.563214 0.936798 0.00055563 0.000120203 -0.000599777
218 1 0.124567 0.625575 0.999458 -0.00203405 0.001192 -1.32216e-05
219 1 0.187352 0.687628 0.0623517 -0.00111795 0.000251159 0.00166348
220 1 0.124835 0.625062 0.125007 -0.000740325 0.0139705 -0.00150491
221 1 0.187479 0.6874 0.18749 -0.00195664 0.00436797 0.00136631
222 1 0.124769 0.624967 0.249977 0.00266582 0.00459208 -0.00264689
223 1 0.18758 0.687396 0.312376 0.000120103 0.000686293 -0.000509017
224 1 0.125069 0.624872 0.37489 -0.00126344 0.00939775 0.00195707
225 1 0.187511 0.687446 0.437459 -0.000880536 0.000374258 -0.000552827
226 1 0.124948 0.625097 0.500109 0.000842098 -0.00230044 -0.00214519
227 1 0.187495 0.68748 0.562537 0.000444386 -0.000293154 -0.000165743
228 1 0.124981 0.625083 0.625055 -0.000226069 0.00030221 0.00026804
229 1 0.187478 0.6875 0.687478 8.32415e-05 -0.000117082 -0.000285563
230 1 0.124936 0.625151 0.749917 -5.01186e-05 0.00038294 -0.000278015
231 1 0.187438 0.687637 0.812285 0.000463299 -0.000153786 -0.000311536
232 1 0.124784 0.625391 0.87458 0.00136132 -0.000496453 -0.000244916
233 1 0.187377 0.687745 0.937188 0.000651291 0.00112722 -0.00116387
234 1 0.12485 0.750046 0.999819 -0.000902557 -0.00131938 -0.000417407
235 1 0.187458 0.812412 0.0623871 0.000768957 -0.000656691 -0.0014205
236 1 0.124927 0.749988 0.124964 -5.88734e-05 0.000238316 0.000298888
237 1 0.187496 0.812446 0.187442 0.00170998 0.00866589 0.00147921
238 1 0.125027 0.750001 0.25 0.00039739 -0.00145064 0.000644856
239 1 0.187649 0.81257 0.312419 -0.00139409 0.000605384 0.000524649
240 1 0.125118 0.749967 0.374905 -0.000209685 -0.000347852 -0.000121306
241 1 0.187483 0.812385 0.437529 -0.000746673 0.000966809 -0.00236445
242 1 0.124992 0.749916 0.499998 -0.00116367 0.000137603 -0.00134156
243 1 0.187419 0.812271 0.562627 0.00112502 -0.00124977 0.000674492
244 1 0.124934 0.749911 0.625014 0.000581012 -0.000579998 0.000336682
245 1 0.187418 0.812325 0.687516 0.000366335 -0.00024892 -0.000399825
246 1 0.124893 0.749977 0.749875 0.000573277 -0.000113503 -0.000338171
247 1 0.187418 0.81237 0.812331 0.000600964 -0.000559293 -0.000499902
248 1 0.124841 0.750038 0.87474 0.00058189 -0.000214562 -0.000746755
249 1 0.187406 0.812321 0.93723 0.000453616 -0.000526635 -0.00106034
250 1 0.124713 0.874558 0.999556 -0.000398295 -0.00377205 -0.00198329
251 1 0.187433 0.936656 0.0616822 -0.00618681 0.0224515 0.0207488
252 1 0.12468 0.874793 0.124691 -0.0156024 -0.0339294 -0.0136241
253 1 0.187247 0.936091 0.187157 -0.00289593 0.179534 -0.0090474
254 1 0.124929 0.875156 0.250139 -0.0170199 -0.0561913 0.0160061
255 1 0.187857 0.937796 0.312272 -0.0167104 -0.00917474 -0.00017647
256 1 0.125222 0.875171 0.374851 -0.00583062 -0.0260927 0.00545812
257 1 0.186995 0.936812 0.438331 -0.00916175 0.0331955 -0.0514138
258 1 0.124733 0.874615 0.50027 -0.000954323 0.00788824 -0.00780572
259 1 0.187345 0.937093 0.562827 -0.00285712 -0.00476696 0.00444644
260 1 0.124853 0.874747 0.625117 -0.000116724 -0.000700259 0.000284425
261 1 0.187374 0.937189 0.687654 0.0012279 -0.000946468 0.000581113
262 1 0.124852 0.874773 0.749923 0.000830758 -0.000912484 3.26226e-05
263 1 0.187417 0.937189 0.8123 9.8998e-05 -0.00115569 -0.000328542
264 1 0.124787 0.874706 0.874696 0.00122185 -0.00102219 -0.00101591
265 1 0.18735 0.936955 0.937008 0.00196493 -0.00226966 -0.00304821
266 1 0.250094 0.9991 0.999269 0.000700057 0.0166828 0.0063645
267 1 0.313811 0.0613154 0.0612173 -0.0039658 -0.0335981 -0.00443928
268 1 0.251426 0.998868 0.12341 -0.0246128 -0.00639656 0.0558039
269 1 0.310511 0.0660146 0.190729 -0.0272972 -0.168121 -0.159568
270 1 0.250654 0.999764 0.249673 -0.0173256 -0.195562 -0.0203471
271 1 0.316051 0.0518297 0.315454 0.0335477 0.0250243 0.0507839
272 1 0.249113 0.998498 0.376493 0.0184973 0.0247057 -0.029911
273 1 0.315094 0.0610815 0.438756 -0.00257487 -0.0775548 0.0794589
274 1 0.250219 0.999214 0.500681 -0.00269835 0.0230011 -0.0170839
275 1 0.312715 0.061359 0.563336 0.00725044 0.0188309 0.00801502
276 1 0.24993 0.999459 0.625454 0.00206212 -0.000801178 0.00123446
277 1 0.312556 0.0622606 0.687646 -0.000738432 -0.00227744 0.00238943
278 1 0.249977 0.999773 0.750013 0.000447455 -0.000559544 -6.55922e-06
279 1 0.312552 0.0622869 0.812406 0.00106107 -0.000292713 -0.00148824
280 1 0.250057 0.999528 0.874622 -0.00072557 0.000284029 0.000835771
281 1 0.312931 0.0617373 0.936962 0.00515083 -0.00503603 -0.025128
282 1 0.250138 0.123139 0.998209 0.00828121 0.0495916 0.0741483
283 1 0.312999 0.187335 0.0616292 -0.0910781 -0.0922795 -0.100929
284 1 0.249806 0.120841 0.117556 0.0355964 0.108868 -0.0971194
285 1 0.317139 0.188671 0.185995 -0.0901125 -0.0296151 0.194175
286 1 0.250305 0.117342 0.381257 -0.0329487 0.0625155 -0.0238238
287 1 0.315451 0.183947 0.448171 0.0507817 -0.0335466 -0.0250234
288 1 0.248985 0.122896 0.501558 0.0197546 0.0485254 -0.0140298
289 1 0.312852 0.186912 0.564035 0.00153675 -0.00866482 -0.153075
290 1 0.249911 0.124558 0.625039 -0.0154638 -0.0170208 0.0495968
291 1 0.312531 0.18734 0.687606 -0.00130323 0.00157419 -0.00958263
292 1 0.249952 0.124855 0.750006 -0.000424903 -0.000432308 0.00132899
293 1 0.312418 0.187409 0.812565 0.00130713 -1.23502e-05 -0.00161386
294 1 0.249933 0.124612 0.874859 0.00987958 -0.00743404 -0.0164071
295 1 0.312471 0.187216 0.937422 0.0072998 0.000886812 -0.025166
296 1 0.249146 0.248661 3.91974e-05 -0.0122634 0.0292979 -0.0716518
297 1 0.310602 0.31135 0.0587464 0.125118 0.0666185 -0.0338612
298 1 0.25016 0.249838 0.250163 -0.0646151 0.0646197 -0.0646228
299 1 0.311328 0.314006 0.317141 0.0296145 -0.194172 -0.0901115
300 1 0.308152 0.308065 0.433718 0.129923 0.21632 0.172966
301 1 0.24967 0.249345 0.500237 -0.0203485 0.0173263 0.195558
302 1 0.312269 0.312141 0.562205 -0.000176573 0.0167103 0.00917513
303 1 0.249958 0.249836 0.624788 -0.000611194 0.000900641 0.0802999
304 1 0.312416 0.312349 0.687431 0.000524646 0.00139408 -0.00060533
305 1 0.249933 0.249922 0.750021 -4.94368e-05 0.000242767 0.000434039
306 1 0.312373 0.312419 0.812605 -0.000509024 -0.000120144 -0.000686262
307 1 0.249817 0.24986 0.87519 0.00209742 0.00305029 -0.0264234
308 1 0.312093 0.31236 0.937582 0.000160777 0.0101246 -0.00852217
309 1 0.24982 0.376845 0.999455 -0.0186956 -0.0371875 -0.0207503
310 1 0.314755 0.439643 0.0604298 -0.0484267 -0.00185831 0.0655366
311 1 0.248082 0.387439 0.119898 -0.13536 0.0704949 0.0304657
312 1 0.315371 0.444533 0.183452 0.0690551 -0.160542 0.00765613
313 1 0.312664 0.438372 0.313002 0.092275 0.100925 -0.0910794
314 1 0.249825 0.379302 0.376816 -0.0676434 -0.10795 -0.260964
315 1 0.313405 0.43801 0.437823 0.000728818 -0.0366219 0.000142918
316 1 0.251247 0.376246 0.50061 0.00127179 -0.0443889 0.0524568
317 1 0.313014 0.438183 0.563161 -0.00463599 -0.0584368 -0.0622703
318 1 0.250136 0.37507 0.624845 0.0160061 0.0170198 0.0561913
319 1 0.312563 0.437488 0.687577 0.000311419 -0.00277377 -0.00327375
320 1 0.249997 0.374972 0.75 0.000644871 -0.000397408 0.00145067
321 1 0.312531 0.437529 0.812489 0.00122341 -0.000279208 -0.000428629
322 1 0.249974 0.375229 0.875034 -0.00264688 -0.00266576 -0.00459246
323 1 0.312788 0.437935 0.937304 0.0103044 0.0201427 -0.0309832
324 1 0.250019 0.501436 0.998881 0.00283901 -0.0575118 0.036891
325 1 0.312593 0.563122 0.0617219 0.0170871 0.0317469 0.00306832
326 1 0.248632 0.502262 0.123878 0.0276115 -0.13093 -0.0374182
327 1 0.313046 0.563356 0.186924 0.00999281 -0.011999 -0.00101723
328 1 0.251337 0.499962 0.249149 -0.0292946 0.0716582 -0.0122639
329 1 0.312782 0.562579 0.312473 -0.000887193 0.0251658 0.00729987
330 1 0.25019 0.501175 0.376083 0.0105942 -0.0696805 -0.075469
331 1 0.312825 0.562851 0.437892 -0.00140936 0.00618171 0.00339586
332 1 0.249944 0.499957 0.500039 0.000705593 0.0148006 -0.000656854
333 1 0.312553 0.562565 0.562572 0.00125785 0.00188451 0.000777807
334 1 0.250117 0.500263 0.625276 -0.00316542 0.00291638 0.00440735
335 1 0.312593 0.562598 0.687601 -0.00140844 0.00108512 0.000704061
336 1 0.250047 0.500064 0.749997 -3.12683e-05 0.000192704 -0.000381542
337 1 0.312589 0.562652 0.812349 -0.00019915 0.000640431 -0.000516753
338 1 0.250069 0.500316 0.874724 0.000258201 0.00162979 -0.00260683
339 1 0.312682 0.563155 0.936847 -0.00205054 0.00362911 -0.00175006
340 1 0.249928 0.625488 0.999549 0.003026 0.00116831 -0.00295432
341 1 0.312501 0.687566 0.0623751 0.000836917 0.00497729 -0.00116467
342 1 0.249797 0.62503 0.124826 -0.00942892 0.0268526 -0.0119298
343 1 0.312606 0.687528 0.187372 -0.00105325 -0.00202899 -2.8622e-05
344 1 0.250138 0.624811 0.24982 -0.00305013 0.0264228 0.0020972
345 1 0.312589 0.687436 0.31242 1.22855e-05 0.00161392 0.00130709
346 1 0.250033 0.624969 0.374996 0.00203996 0.00116295 -6.61182e-05
347 1 0.312542 0.687496 0.437533 0.000235044 -0.000106089 0.000301961
348 1 0.249979 0.625022 0.500057 0.000389711 0.00203198 0.000922731
349 1 0.312507 0.687456 0.56257 0.000192786 0.000798986 0.000265489
350 1 0.250037 0.625036 0.62506 0.000253605 -0.000768861 -0.000803518
351 1 0.312537 0.687468 0.687513 0.000395631 -0.000250612 -0.000283938
352 1 0.250029 0.625096 0.749946 0.000124669 0.000325381 -0.00037785
353 1 0.312556 0.687605 0.812318 0.000193509 -0.000160227 -0.000441765
354 1 0.249992 0.625338 0.874634 0.000407549 -0.000229498 -0.000326559
355 1 0.312548 0.687719 0.937209 0.00094274 0.0006169 -0.000715297
356 1 0.249975 0.75001 0.999846 0.00067031 -0.000440227 -0.000168415
357 1 0.312589 0.812368 0.0623724 0.000970546 0.00234361 0.00148154
358 1 0.249993 0.75 0.124947 0.000580204 -0.000798403 7.39234e-05
359 1 0.312569 0.812526 0.187492 0.00109573 0.000538988 -0.00139845
360 1 0.250077 0.74998 0.249935 -0.000242823 -0.000434002 -4.94302e-05
361 1 0.312659 0.812395 0.312534 -0.00157426 0.00958282 -0.00130318
362 1 0.250052 0.749965 0.374961 -0.0005658 -0.00161921 -0.000308436
363 1 0.312568 0.812363 0.437608 -0.000830769 -0.00275372 0.00183346
364 1 0.249997 0.749896 0.500034 0.000149534 3.23881e-05 -0.000277133
365 1 0.312528 0.812211 0.562726 6.24646e-05 -0.000294823 0.00034227
366 1 0.249981 0.749871 0.625064 0.000232898 -0.000277813 -4.27885e-05
367 1 0.312524 0.812296 0.687575 0.000418479 -0.000532923 -0.000389189
368 1 0.249988 0.749949 0.749915 0.000498358 -0.000365501 -0.00038901
369 1 0.312553 0.812361 0.812366 0.000439865 -0.00053486 -0.000244549
370 1 0.249984 0.750017 0.874774 0.000526641 -0.000457023 -0.000681051
371 1 0.312595 0.812316 0.937246 -0.000337185 -0.00102624 -0.000782892
372 1 0.250073 0.874557 0.999563 -0.00178584 -0.00348878 -0.00277088
373 1 0.313134 0.936632 0.061591 0.00388162 0.0367533 0.0465628
374 1 0.250174 0.875067 0.124776 0.0149074 -0.0566791 -0.0178013
375 1 0.312708 0.937487 0.187525 0.00626197 1.83482e-05 -0.0117118
376 1 0.250162 0.875213 0.249961 -0.000900778 -0.0802994 -0.000611172
377 1 0.313086 0.935966 0.312854 0.00866482 0.153075 0.00153687
378 1 0.250005 0.875048 0.375215 -0.0158893 -0.0505823 0.017269
379 1 0.312713 0.936776 0.43842 0.0113505 -0.0168632 -0.0139643
380 1 0.249957 0.874568 0.500371 0.00299855 -0.0026709 0.00189837
381 1 0.312613 0.936848 0.563094 -0.00259016 -0.00349911 0.00294442
382 1 0.24993 0.874666 0.625229 0.000195274 -0.000233215 -0.000574895
383 1 0.31255 0.937146 0.687728 -1.0219e-05 -0.000941098 -0.000153782
384 1 0.249976 0.874759 0.749977 0.000330721 -0.000629517 -0.000263621
385 1 0.312592 0.93721 0.812342 -0.00013645 -0.000428373 -0.000172868
386 1 0.25001 0.874719 0.874736 0.00064713 -0.000752359 -0.000182793
387 1 0.312712 0.937031 0.937069 0.00203186 -0.00273452 -0.00249176
388 1 0.375565 0.999303 0.99945 -0.000502653 0.00129604 -0.011554
389 1 0.438022 0.0618009 0.0619421 -0.024335 0.0568275 0.0845502
390 1 0.37445 0.000298059 0.125639 0.00354877 -0.0196107 -0.011781
391 1 0.439025 0.0610828 0.186242 0.0202188 0.0318417 0.00258869
392 1 0.377102 0.998443 0.248988 -0.0485249 0.0140293 0.0197545
393 1 0.438917 0.0612449 0.315097 0.0775546 -0.0794586 -0.00257426
394 1 0.377215 0.997418 0.377067 -0.0149767 0.0474173 -0.013229
395 1 0.437133 0.0628656 0.437136 0.0682876 -0.0682879 0.0682884
396 1 0.376025 0.998541 0.501423 0.00847902 0.0626096 -0.0652808
397 1 0.438579 0.0613879 0.563597 -0.00638013 0.006449 0.0152746
398 1 0.375317 0.999377 0.625592 -0.000609478 9.64603e-05 -0.00117501
399 1 0.437765 0.0622222 0.6878 0.00123322 -0.00131224 0.00350817
400 1 0.375117 0.999771 0.750056 0.00071544 -0.00051356 0.00052959
401 1 0.437634 0.0623638 0.812456 0.000103908 -0.000522398 -0.00117111
402 1 0.375277 0.999626 0.874676 -0.00131504 0.00143466 0.00154526
403 1 0.437799 0.0622067 0.937206 5.02441e-05 0.000215593 -0.00388029
404 1 0.375363 0.1246 0.999504 -0.00485242 -0.00375704 -0.0146054
405 1 0.43782 0.186593 0.061991 0.000143457 -0.000728964 0.0366218
406 1 0.375227 0.123961 0.125188 0.103132 0.0517661 -0.0179979
407 1 0.433716 0.191846 0.191937 0.172966 -0.129923 -0.216318
408 1 0.382657 0.118744 0.250308 -0.062515 0.0238242 -0.0329477
409 1 0.448169 0.184548 0.316054 -0.0250244 -0.0507841 0.0335492
410 1 0.370672 0.129326 0.370675 0.246832 -0.246833 0.246835
411 1 0.438753 0.184904 0.43892 0.0794586 0.00257469 0.0775551
412 1 0.377064 0.122784 0.502583 -0.0132296 0.0149769 -0.0474179
413 1 0.438417 0.187285 0.563225 -0.0139646 -0.0113505 0.0168629
414 1 0.375401 0.124527 0.625327 0.0157893 -0.0155215 0.0300492
415 1 0.437605 0.187431 0.687638 0.00183345 0.000830715 0.0027537
416 1 0.375057 0.124882 0.750058 0.000102306 -8.94587e-05 0.00124824
417 1 0.43753 0.187457 0.812505 0.000301959 -0.000235107 0.000106069
418 1 0.375069 0.124834 0.874865 0.000889612 -0.000733188 -0.00197725
419 1 0.437889 0.187173 0.93715 0.0033957 0.0014094 -0.00618144
420 1 0.37608 0.249808 0.998827 -0.0754685 -0.0105942 0.0696806
421 1 0.43751 0.31352 0.0626849 0.0975925 0.0211037 -0.0827822
422 1 0.376813 0.250174 0.120699 -0.260961 0.0676452 0.107954
423 1 0.448142 0.315298 0.184578 -0.00555578 0.0837684 -0.0574836
424 1 0.433984 0.309272 0.310514 0.168123 0.159568 -0.0272956
425 1 0.381254 0.249694 0.382659 -0.0238233 0.032948 -0.0625146
426 1 0.438915 0.313759 0.439028 -0.0318404 -0.0025887 0.0202185
427 1 0.37649 0.250885 0.501503 -0.0299121 -0.0184973 -0.0247056
428 1 0.438328 0.313003 0.563189 -0.0514132 0.00916159 -0.0331951
429 1 0.375213 0.249993 0.624953 0.0172688 0.0158894 0.0505821
430 1 0.437527 0.312515 0.687616 -0.00236448 0.000746668 -0.000966834
431 1 0.374958 0.249946 0.750036 -0.000308453 0.000565734 0.00161918
432 1 0.437456 0.312487 0.812555 -0.000552829 0.000880488 -0.000374263
433 1 0.374993 0.249965 0.875032 -6.60971e-05 -0.00204007 -0.0011631
434 1 0.437701 0.312733 0.937425 0.00980171 0.00294785 -0.020222
435 1 0.374961 0.374901 0.000143687 0.0244326 0.00980396 -0.0320289
436 1 0.437246 0.437326 0.0624718 -0.0161019 0.0111703 0.00239787
437 1 0.373272 0.372671 0.128342 0.0399138 0.0477085 -0.145946
438 1 0.439718 0.438973 0.185727 -0.0315958 0.0306424 0.00895362
439 1 0.379157 0.382445 0.249809 -0.108871 0.0971186 0.035597
440 1 0.438683 0.438784 0.313814 0.0335987 0.0044405 -0.00396481
441 1 0.376038 0.374813 0.375229 -0.0517663 0.0179967 0.103131
442 1 0.438197 0.438059 0.438025 -0.0568269 -0.0845501 -0.0243353
443 1 0.373839 0.373976 0.499059 0.0494953 0.0312124 0.0536828
444 1 0.437197 0.437219 0.562372 0.00130304 -0.000249365 0.000386402
445 1 0.374848 0.374777 0.62483 0.00545803 0.0058306 0.0260926
446 1 0.437385 0.437378 0.687524 0.00099712 0.000840765 0.0046712