ITEM: TIMESTEP
0
ITEM: NUMBER OF ATOMS
1026
ITEM: BOX BOUNDS pp pp pp
0.0000000000000000e+00 2.2857118000000000e+01
0.0000000000000000e+00 2.2857118000000000e+01
0.0000000000000000e+00 2.2857118000000000e+01
ITEM: ATOMS id type xs ys zs fx fy fz
1 1 0.24218 0.236992 0.123962 0.18047 -0.0578171 0.0144696
2 1 0.292497 0.312191 0.164699 0.083964 0.285038 0.266961
3 1 0.222837 0.135058 0.214851 0.198593 -0.0190202 0.112814
4 1 0.164696 0.207501 0.18781 0.266962 -0.0839618 -0.285039
5 1 0.36494 0.28515 0.22284 0.0190167 -0.112816 0.198592
6 1 0.263006 0.376039 0.242183 0.0578105 -0.0144735 0.180448
7 1 0.2875 0.140878 0.286471 -0.124894 0.107707 -0.0367494
8 1 0.359121 0.21353 0.287503 -0.107705 0.0367465 -0.124897
9 1 0.123959 0.257818 0.263009 0.0144711 -0.180457 0.0578146
10 1 0.187807 0.335302 0.292501 -0.285026 -0.266968 0.083963
11 1 0.286469 0.212498 0.359123 -0.0367444 0.124891 -0.107709
12 1 0.214848 0.277161 0.364943 0.112813 -0.198593 0.0190353
13 1 0.999566 0.999807 0.999725 -0.00830474 -0.00650599 -0.00731665
14 1 0.0620901 0.062461 0.0622646 0.00179059 0.0223251 0.000161472
15 1 0.999803 0.999664 0.12484 -0.0115177 -0.00795763 -0.010849
16 1 0.0624969 0.0622094 0.186894 -0.0912272 -0.104472 -0.00716731
17 1 3.01712e-05 0.999973 0.250051 -0.0233968 -0.00767256 0.00653078
18 1 0.0621612 0.0623396 0.313333 0.0212787 0.0071953 0.00722499
19 1 0.999905 0.999832 0.375244 -0.0205675 -0.000651825 0.00399289
20 1 0.0621056 0.062096 0.438074 0.0779938 0.0234054 -0.0521805
21 1 0.999792 0.999677 0.500291 0.0104167 0.00236634 -0.0049436
22 1 0.0625459 0.0625188 0.562583 -0.00426806 -0.00237244 0.0044725
23 1 0.999928 0.999888 0.625065 -0.00131378 -0.000586804 0.00219722
24 1 0.0624122 0.0623996 0.687566 -0.00037249 -0.000460251 0.00310943
25 1 0.999828 0.999835 0.749894 -0.000210722 -0.000616985 0.00161952
26 1 0.0622757 0.062288 0.812281 -0.000375051 -0.000864234 -0.000416388
27 1 0.999539 0.999592 0.874518 0.00323889 0.0015808 0.000515481
28 1 0.0617092 0.0616984 0.936635 0.00876949 0.00632902 -0.00377062
29 1 0.998817 0.124132 0.998769 0.0278567 0.0053186 0.0282473
30 1 0.060437 0.185598 0.060407 0.0714113 0.0493457 0.0175194
31 1 0.000237693 0.125111 0.125192 -0.0594289 -0.0272353 -0.0130404
32 1 0.0601588 0.189704 0.188169 0.0070433 -0.114085 -0.127427
33 1 0.999291 0.124447 0.25 0.0305996 0.0420925 0.00890957
34 1 0.0608836 0.186799 0.313562 -0.0155799 0.079513 -0.00468307
35 1 0.999435 0.12459 0.375601 -0.0162482 -0.00156522 0.00559898
36 1 0.0617163 0.186695 0.438217 -0.00616112 0.00854622 0.0186242
37 1 0.999607 0.12461 0.500509 -0.00900283 0.00390213 -0.00633351
38 1 0.0615926 0.186878 0.563388 0.0458655 0.00136251 -0.0441159
39 1 0.999603 0.12464 0.625425 0.00518108 0.000343898 -0.00618557
40 1 0.0623661 0.187409 0.687634 0.00158642 -0.00127685 -0.00263473
41 1 0.999832 0.124909 0.749996 -1.25787e-05 -0.00201879 -0.000442597
42 1 0.0623587 0.187488 0.812422 -0.00127757 -0.00134368 -0.00498745
43 1 0.999586 0.1248 0.874566 0.000764384 -0.00106069 -0.000824461
44 1 0.0618234 0.187395 0.936967 -0.00532423 -0.0184927 -0.039386
45 1 0.998746 0.249951 0.998487 0.0377138 -0.0011968 0.0549621
46 1 0.0595491 0.315013 0.059264 0.0211388 -0.0143229 -0.0522975
47 1 0.999026 0.250157 0.12309 0.0289464 0.0157488 0.0557577
48 1 0.0628538 0.310408 0.18603 -0.0129492 0.102021 0.0556842
49 1 0.000104763 0.250844 0.250977 -0.0828293 0.0183812 -0.0108144
50 1 0.0584144 0.316526 0.314304 0.137977 -0.021616 0.0368326
51 1 0.998677 0.250404 0.37638 0.0610241 0.00205625 -0.0416103
52 1 0.0614101 0.314057 0.43937 -0.0516195 -0.000329542 0.0184975
53 1 0.999466 0.249946 0.500691 -0.000722242 -0.000756858 -0.0102872
54 1 0.0615965 0.31256 0.56349 0.0310528 0.00395804 -0.0382094
55 1 0.99954 0.249907 0.625453 -0.00350382 0.00152428 0.00384706
56 1 0.0623745 0.312539 0.687601 -0.00233599 -0.00117549 0.00112031
57 1 0.999836 0.250018 0.74999 -0.000547489 -0.00104429 0.000452566
58 1 0.0623332 0.31264 0.81236 0.000196915 0.00046793 -0.00152745
59 1 0.999567 0.250051 0.874536 -0.00189617 -0.00333277 -0.000286213
60 1 0.0615816 0.313127 0.936631 0.00586549 0.00934096 -0.0105192
61 1 0.998468 0.37623 0.998406 -0.000940542 -0.00804711 0.00522807
62 1 0.0607665 0.439232 0.0607693 0.0040759 -0.00407675 0.00407508
63 1 0.998908 0.375313 0.124252 0.0334937 0.0153654 0.0309606
64 1 0.0592613 0.440449 0.184988 -0.0522961 -0.0211374 0.0143234
65 1 0.998017 0.376104 0.248895 0.124415 0.0256316 0.00804504
66 1 0.0604043 0.439561 0.314403 0.0175202 -0.0714126 -0.0493446
67 1 0.998304 0.376422 0.376531 0.0350715 -0.0211129 -0.0146895
68 1 0.0622618 0.437908 0.43754 0.000162983 -0.00179116 -0.0223257
69 1 0.999144 0.375878 0.501053 0.00444945 0.00293852 -0.0103443
70 1 0.0614887 0.438655 0.563646 0.0109887 -0.00676838 -0.00377036
71 1 0.999513 0.37529 0.625482 -0.00260728 -0.000406122 0.00369797
72 1 0.0623128 0.43775 0.687689 -0.00278704 0.00310216 0.00335676
73 1 0.999805 0.375148 0.749954 -0.0011749 0.000567112 0.00144291
74 1 0.0623602 0.437692 0.812323 -0.00165297 0.00177215 -0.00341008
75 1 0.999462 0.375396 0.874433 -0.00187933 0.0016425 -0.00354554
76 1 0.061969 0.438076 0.936731 -0.00696003 0.007258 -0.00952016
77 1 0.998967 0.501031 0.99897 0.0010505 -0.0010507 0.0010504
78 1 0.0619227 0.56327 0.0619718 -0.00725774 0.00952007 -0.00695989
79 1 0.998404 0.50153 0.123771 0.00522877 0.000939782 0.00804772
80 1 0.0616296 0.563117 0.187229 -0.0159214 0.0273987 -0.0168561
81 1 0.998484 0.501253 0.25005 0.0549614 -0.0377132 0.00119674
82 1 0.0620195 0.562783 0.31284 -0.0162902 0.0293051 0.013209
83 1 0.998766 0.501182 0.375869 0.0282459 -0.0278554 -0.00531868
84 1 0.0625537 0.562595 0.437589 -1.68105e-06 0.00775623 -0.00290616
85 1 0.999722 0.500432 0.500194 -0.00731619 0.00830455 0.00650561
86 1 0.0623819 0.562725 0.562682 -0.00379378 0.00259204 0.00231651
87 1 0.999527 0.500589 0.625504 0.00248246 -0.000800616 -0.00144059
88 1 0.0623854 0.562766 0.687617 0.000628227 0.000886501 0.000440991
89 1 0.999801 0.500251 0.749976 -0.00174468 0.00170094 -0.000409968
90 1 0.0622973 0.562803 0.812224 -0.00140581 0.0017076 -0.00119077
91 1 0.999586 0.50042 0.874507 -0.00250111 0.00222421 -0.00514967
92 1 0.0618323 0.563335 0.936653 0.00388115 -0.0016788 0.000962244
93 1 0.999578 0.625494 0.999589 -0.00222416 0.00514964 -0.00250105
94 1 0.062306 0.687678 0.062363 -0.00177213 0.00341008 -0.001653
95 1 0.99954 0.625466 0.124746 -0.00397246 0.00597105 -0.00403877
96 1 0.0623437 0.687612 0.187476 -0.000715272 0.000904252 -0.000432608
97 1 0.999658 0.625309 0.25008 -0.00297293 0.00401372 0.000592587
98 1 0.0624629 0.687524 0.312545 -7.02633e-05 0.00128236 0.00173124
99 1 0.999783 0.625257 0.375217 0.00148736 -0.000723111 0.00191102
100 1 0.062593 0.687491 0.43745 -0.000186675 0.00133148 0.000777247
101 1 0.999992 0.625149 0.500063 -0.000152766 0.00136631 0.00125318
102 1 0.0624692 0.687527 0.562529 -0.000393046 -0.000494331 -0.000887696
103 1 0.999887 0.625165 0.625058 -0.000967864 0.000172937 -3.38471e-05
104 1 0.0624107 0.687554 0.687446 0.000331885 -3.58974e-05 -0.00019715
105 1 0.999812 0.62523 0.749891 7.25736e-05 0.000783839 -7.45328e-05
106 1 0.0623067 0.687693 0.812236 0.000977907 0.000361038 -0.000521213
107 1 0.999603 0.625442 0.874535 0.00107195 3.28278e-05 -0.000296187
108 1 0.0622083 0.687801 0.937139 -0.000201088 8.95991e-05 -0.000713819
109 1 0.999747 0.750026 0.999804 -0.00170089 0.000410009 -0.00174462
110 1 0.0622484 0.812312 0.0623156 -0.00310202 -0.00335655 -0.00278691
111 1 0.999837 0.750045 0.124963 -0.00110697 -0.000784675 -0.000520937
112 1 0.062439 0.812425 0.187549 -0.00260837 -0.00122943 0.0014577
113 1 0.999922 0.750005 0.250059 -0.000705313 0.000319841 0.000393026
114 1 0.0625037 0.812415 0.312576 0.00275824 0.00304666 0.0011469
115 1 0.999981 0.749976 0.375064 0.000892447 0.000483783 0.00192274
116 1 0.0626186 0.812471 0.437392 -0.00081876 -0.00452801 0.0011595
117 1 5.99423e-05 0.749993 0.499948 -0.00053603 -0.00139605 0.000902306
118 1 0.0623697 0.812308 0.562569 6.76627e-05 0.00163401 -0.00178274
119 1 0.999906 0.749959 0.624985 0.000205183 0.000210133 -0.000652289
120 1 0.062362 0.812371 0.687456 0.000298971 -0.000180356 8.21746e-05
121 1 0.999819 0.750025 0.749839 0.000850268 0.000135221 -0.000396462
122 1 0.0622957 0.812396 0.812296 0.00110309 -6.79048e-05 -0.000232297
123 1 0.999718 0.750063 0.874709 0.000669573 -0.000275425 -0.000615627
124 1 0.0622183 0.812317 0.937183 0.000950323 -0.00144206 -0.00175031
125 1 0.999409 0.874497 0.999529 0.000800453 0.00144034 0.00248234
126 1 0.061343 0.936356 0.0614915 0.00676802 0.00376964 0.0109884
127 1 0.999601 0.874618 0.124923 -0.00161592 -0.00214752 6.64545e-05
128 1 0.06174 0.936663 0.187657 0.0400514 0.0465153 -0.00135013
129 1 0.999689 0.874685 0.250161 -0.00470829 -0.00542295 -0.00222479
130 1 0.0617809 0.936805 0.313048 0.0557798 0.0583377 -0.00315997
131 1 0.999763 0.874696 0.37526 0.00503615 0.0070875 0.000810695
132 1 0.0627493 0.937609 0.437212 -0.00124463 -0.00224381 0.00242729
133 1 6.81729e-05 0.874953 0.499913 -0.00155141 -0.0020123 0.00102926
134 1 0.0622793 0.937199 0.562698 -0.00189784 -0.00195278 0.00306164
135 1 0.999878 0.874834 0.62502 -0.00050957 -0.000817111 0.00102634
136 1 0.0622653 0.937229 0.687596 0.00066245 0.00119579 -0.00153451
137 1 0.999777 0.874808 0.749878 0.000755561 0.000332034 -9.93493e-05
138 1 0.0622344 0.937191 0.812251 0.000967241 0.000130496 0.000410058
139 1 0.99962 0.874736 0.874679 0.000887092 0.00158918 0.00126041
140 1 0.0619204 0.936951 0.936966 0.000404545 0.00310315 0.00180399
141 1 0.12412 0.998948 0.999146 -0.00293816 0.0103457 0.00445132
142 1 0.185942 0.0606312 0.0614129 0.000330506 -0.0184966 -0.0516198
143 1 0.122577 0.997394 0.122763 0.00166434 -0.0714111 0.0113013
144 1 0.183596 0.05105 0.184008 -0.0474933 -0.0811956 -0.087166
145 1 0.123648 0.999274 0.251384 0.0503026 -0.0500332 0.000795018
146 1 0.191775 0.066136 0.308633 -0.22808 -0.160236 0.109766
147 1 0.125932 0.00081888 0.373912 -0.0209315 -0.0407811 0.0384906
148 1 0.186127 0.0608859 0.439021 -0.001175 -0.0294861 -0.0192027
149 1 0.124454 0.999404 0.500502 -0.00759202 -0.0100325 0.0139235
150 1 0.186848 0.0614419 0.563303 -0.00356358 0.0305631 -0.0164109
151 1 0.12463 0.999535 0.625406 0.0002289 0.00569822 -0.00603169
152 1 0.187377 0.0622685 0.687643 -0.00105155 0.000987995 -0.000529905
153 1 0.124845 0.999769 0.749982 -0.000570205 -0.000328455 -2.50276e-05
154 1 0.187369 0.0622623 0.812403 0.00075544 -0.000990677 -0.00232422
155 1 0.124685 0.999485 0.874558 0.00243791 0.00116048 0.00224144
156 1 0.187135 0.0615889 0.936908 -0.00478379 -0.0033068 -0.0190836
157 1 0.123577 0.12347 0.998307 0.0211127 0.0146896 0.0350715
158 1 0.183473 0.185697 0.0584171 0.0216125 -0.0368325 0.137997
159 1 0.126404 0.124726 0.126726 -0.0176681 0.122925 0.01616
160 1 0.120992 0.124093 0.249857 0.102646 0.288743 -0.0602694
161 1 0.186379 0.184654 0.311236 0.134167 0.00433179 0.0250645
162 1 0.125494 0.124986 0.375775 -0.00481899 -0.0929662 -0.0624096
163 1 0.190548 0.189238 0.434224 -0.152942 0.0782291 0.150816
164 1 0.12553 0.125579 0.499711 -0.00502644 0.00269075 0.016404
165 1 0.187548 0.187347 0.562485 -0.00917974 -0.00249264 -0.00412191
166 1 0.124986 0.124909 0.625058 -0.00440645 -0.00296596 0.0198665
167 1 0.187496 0.187437 0.687468 -0.00124092 -0.000783468 -0.000809964
168 1 0.124921 0.124917 0.749985 0.000464329 0.000480563 0.000637954
169 1 0.187372 0.187406 0.812494 -2.23196e-05 0.000949447 0.000148262
170 1 0.124665 0.124705 0.874739 -0.00593436 -0.006133 -0.0111499
171 1 0.186933 0.187105 0.937072 -0.00332249 -0.00506573 -0.020502
172 1 0.123894 0.251106 0.99802 -0.0256327 -0.00804542 0.124418
173 1 0.189591 0.313971 0.0628566 -0.102019 -0.0556819 -0.0129472
174 1 0.118983 0.253247 0.113822 0.0372556 0.0808248 0.0397319
175 1 0.183111 0.316887 0.183114 0.113371 -0.113373 0.113382
176 1 0.118754 0.251312 0.377095 0.0349457 0.0492507 -0.218317
177 1 0.184005 0.316402 0.448951 -0.0871655 0.0474906 0.0812015
178 1 0.123326 0.248606 0.501139 0.0732894 0.0324122 0.000500319
179 1 0.187159 0.312772 0.563974 -0.0113904 0.00634569 -0.195864
180 1 0.124773 0.24983 0.624942 -0.0172036 -0.0160288 0.0569959
181 1 0.187444 0.312505 0.687554 0.00188176 -0.00178862 -0.00852115
182 1 0.124942 0.250002 0.749987 1.60275e-05 -0.000953915 0.00109858
183 1 0.187473 0.312532 0.812565 0.00055741 0.0016101 -0.00515536
184 1 0.124797 0.250172 0.874885 -0.00422691 0.00290065 -0.00840665
185 1 0.187602 0.312805 0.937721 0.011769 0.013426 -0.0637422
186 1 0.124685 0.375749 0.998911 -0.0153649 -0.0309613 0.0334963
187 1 0.184985 0.440737 0.0595518 0.0143229 0.0522978 0.0211354
188 1 0.122138 0.377861 0.12214 0.0669914 -0.0669939 0.0669943
189 1 0.186027 0.437145 0.189593 0.0556846 0.0129624 -0.102029
190 1 0.11382 0.381015 0.246754 0.0397472 -0.03726 -0.0808192
191 1 0.188167 0.439839 0.310297 -0.127431 -0.00704552 0.114082
192 1 0.126723 0.373594 0.375276 0.0161683 0.017653 -0.122938
193 1 0.186891 0.437501 0.437792 -0.00716804 0.0912255 0.104471
194 1 0.12276 0.377421 0.502607 0.0113009 -0.00166441 0.071412
195 1 0.187654 0.438258 0.563338 -0.00135041 -0.0400525 -0.0465165
196 1 0.124677 0.375347 0.625262 -0.0143177 0.016573 0.0301459
197 1 0.187547 0.437559 0.687576 0.00145776 0.00260846 0.00122953
198 1 0.124951 0.375081 0.75 -0.000167099 0.000431012 -5.26383e-05
199 1 0.187474 0.437655 0.812389 -0.000432634 0.000715251 -0.000904133
200 1 0.124935 0.375204 0.874841 -0.00219341 0.00155421 -0.0104824
201 1 0.187226 0.438369 0.936885 -0.0168562 0.0159212 -0.0273981
202 1 0.123768 0.501595 0.998471 0.00804759 -0.00522823 -0.000939733
203 1 0.186871 0.56337 0.0615843 -0.0093408 0.0105205 0.00586355
204 1 0.124249 0.50109 0.124688 0.0309614 -0.0334956 -0.0153644
205 1 0.187193 0.56228 0.187605 -0.0134258 0.0637429 0.0117685
206 1 0.123087 0.500972 0.249844 0.0557597 -0.0289517 -0.0157486
207 1 0.18761 0.562367 0.312092 -0.0084095 0.0150766 8.88839e-05
208 1 0.12519 0.499761 0.37489 -0.0130408 0.0594302 0.0272356
209 1 0.187344 0.562553 0.437647 -0.000182811 0.00676326 0.00130632
210 1 0.124838 0.500195 0.500337 -0.0108495 0.0115189 0.00795892
211 1 0.18754 0.562598 0.562606 0.00161253 0.000628969 -0.000438084
212 1 0.12492 0.500398 0.625383 6.6448e-05 0.00161583 0.00214744
213 1 0.18753 0.562668 0.687607 0.00014743 0.00136604 0.000142563
214 1 0.12496 0.500162 0.749957 -0.000520961 0.00110699 0.000784778
215 1 0.187476 0.562724 0.812297 -0.000172174 0.00162239 -0.00185345
216 1 0.124744 0.500458 0.874535 -0.00403889 0.00397255 -0.00597117
217 1 0.187268 0.563275 0.936741 0.00134518 0.000247914 -0.000458612
218 1 0.124603 0.625568 0.999464 -0.00164244 0.0035457 -0.00187945
219 1 0.187358 0.687641 0.062336 -0.000467928 0.0015277 0.000196756
220 1 0.124794 0.62516 0.124938 -0.00155425 0.0104816 -0.0021934
221 1 0.187467 0.687437 0.187476 -0.00161004 0.00515553 0.000557438
222 1 0.12476 0.625039 0.249966 0.0031724 0.00119394 -0.000974241
223 1 0.187587 0.6874 0.312376 -0.000154197 0.00109599 -1.30013e-05
224 1 0.125088 0.624884 0.37489 0.000296607 0.00689864 0.00160108
225 1 0.187526 0.68744 0.437454 0.000127573 -0.000539021 -0.00112352
226 1 0.124975 0.625075 0.500091 0.00145429 -0.00262764 -0.00248489
227 1 0.187502 0.68747 0.562528 0.000644369 -0.000735563 -0.000514176
228 1 0.124986 0.625081 0.625046 -4.16139e-05 0.000175421 -9.28034e-05
229 1 0.18748 0.687504 0.687475 0.000213378 5.02885e-06 -0.000381247
230 1 0.124937 0.625166 0.749911 6.70945e-05 0.00100142 -0.000433363
231 1 0.187445 0.687649 0.812279 0.000715779 0.000237179 -0.00049415
232 1 0.124784 0.625422 0.874552 0.00166722 0.000204391 -0.000712501
233 1 0.18739 0.687745 0.937188 0.000863647 0.00117175 -0.00127298
234 1 0.124851 0.750047 0.999808 -0.000567096 -0.00144283 -0.00117497
235 1 0.18746 0.8124 0.0623773 0.00117546 -0.00112023 -0.00233589
236 1 0.124917 0.750001 0.124953 -0.000431029 5.26629e-05 -0.000167098
237 1 0.187494 0.812447 0.187446 0.00178857 0.00852132 0.00188177
238 1 0.125022 0.750011 0.250005 0.000322856 -0.0014898 0.000895781
239 1 0.18766 0.812574 0.312417 -0.00120846 0.000310787 0.000532633
240 1 0.125125 0.749968 0.374906 3.40284e-05 -0.000357966 0.000151702
241 1 0.187484 0.812377 0.437536 -0.00116989 0.000341632 -0.00202919
242 1 0.124996 0.749909 0.499998 -0.00103711 -8.56202e-05 -0.00124063
243 1 0.187413 0.81226 0.562636 0.000997725 -0.00150076 0.00087003
244 1 0.124934 0.749907 0.625014 0.000629899 -0.000756423 0.000242414
245 1 0.187417 0.812327 0.687522 0.000332874 -0.000290804 -0.00020864
246 1 0.124896 0.749986 0.749874 0.000655348 0.000138544 -0.000371662
247 1 0.187422 0.812382 0.812341 0.00070591 -0.000111537 -0.0001642
248 1 0.124848 0.750042 0.874736 0.000726422 -0.000133619 -0.000897586
249 1 0.187415 0.812319 0.937221 0.000744756 -0.000440213 -0.0013006
250 1 0.124708 0.874519 0.999515 0.000406099 -0.00369812 -0.00260736
251 1 0.187438 0.936511 0.0615993 -0.0039582 0.0382082 0.0310518
252 1 0.124651 0.874739 0.124679 -0.016573 -0.0301465 -0.0143176
253 1 0.187226 0.936027 0.187162 -0.00634517 0.195863 -0.0113899
254 1 0.12492 0.87514 0.250158 -0.0165986 -0.0568931 0.017629
255 1 0.187904 0.937808 0.312258 -0.0137159 -0.00764728 -0.0022184
256 1 0.125228 0.875155 0.374852 -0.00562396 -0.0255691 0.00520779
257 1 0.186972 0.936798 0.438351 -0.0102966 0.0252396 -0.0447793
258 1 0.124722 0.874605 0.500277 -0.00117407 0.00705013 -0.00714138
259 1 0.187326 0.937071 0.562853 -0.00384867 -0.00614416 0.00564761
260 1 0.124845 0.874742 0.625127 -0.000332012 -0.00102538 0.000576287
261 1 0.187365 0.937186 0.687667 0.00105628 -0.000970855 0.00100022
262 1 0.124852 0.874781 0.749935 0.000916699 -0.000512873 0.00049916
263 1 0.187418 0.937213 0.812326 9.40911e-05 -0.000202241 0.000660701
264 1 0.124802 0.874733 0.874718 0.00129579 -0.000110753 -0.000420277
265 1 0.187363 0.937027 0.937075 0.002287 0.000644499 -0.000564389
266 1 0.250052 0.99931 0.999468 0.000756518 0.0102884 -0.000720938
267 1 0.313303 0.0617845 0.061719 -0.00854741 -0.0186231 -0.0061594
268 1 0.251392 0.998862 0.123329 -0.0324112 -0.000501199 0.0732882
269 1 0.31076 0.0657769 0.190551 -0.0782241 -0.150818 -0.152944
270 1 0.250502 0.000312464 0.249571 -0.0456567 -0.0769566 -0.0513191
271 1 0.316393 0.0512471 0.315749 0.0337744 0.00255783 0.0506414
272 1 0.249117 0.998336 0.376655 0.0209561 0.0339439 -0.0381562
273 1 0.315138 0.0608867 0.438939 -0.00447303 -0.0774776 0.0813417
274 1 0.250203 0.999132 0.500769 -0.00572546 0.0247411 -0.0189802
275 1 0.312721 0.0612776 0.563434 0.00907988 0.0218153 0.00521469
276 1 0.249906 0.99944 0.625479 0.00149764 -0.00133353 0.00168115
277 1 0.312552 0.0622567 0.68766 -0.000940982 -0.00280936 0.00309292
278 1 0.249971 0.999779 0.750027 0.000201102 -0.000381241 0.000568187
279 1 0.312529 0.0623078 0.812431 -0.000142167 0.000468907 0.000186563
280 1 0.25002 0.999595 0.874693 -0.00128138 0.0020147 0.00275787
281 1 0.312723 0.061911 0.937106 -0.00236095 -0.000436818 -0.0143004
282 1 0.249594 0.123621 0.998679 -0.00205656 0.0416103 0.061025
283 1 0.313199 0.186439 0.0608864 -0.0795108 0.00468396 -0.0155822
284 1 0.248686 0.122906 0.118756 -0.0492568 0.218321 0.0349468
285 1 0.315345 0.188766 0.186381 -0.00433429 -0.0250546 0.134178
286 1 0.250236 0.117058 0.381644 -0.0375033 0.0693303 -0.0136981
287 1 0.315746 0.183605 0.448754 0.0506424 -0.0337765 -0.00255391
288 1 0.248957 0.122753 0.501714 0.0234222 0.0559092 -0.0202285
289 1 0.312803 0.186955 0.564071 0.000169723 -0.00701691 -0.173153
290 1 0.249901 0.124547 0.625053 -0.0168132 -0.0161296 0.0478739
291 1 0.312525 0.187342 0.687605 -0.00180335 0.00186082 -0.00942872
292 1 0.249944 0.12486 0.750008 -0.000769682 -0.000193553 0.00174954
293 1 0.312414 0.187408 0.812564 0.000692535 -8.26927e-05 -0.000798816
294 1 0.249879 0.124671 0.874871 0.000957149 0.000729548 -0.00139024
295 1 0.312392 0.18723 0.937455 0.00296523 -0.00109504 -0.016658
296 1 0.249155 0.249024 0.000107518 -0.0183811 0.0108162 -0.0828283
297 1 0.310294 0.311832 0.0601616 0.114087 0.127429 0.00704124
298 1 0.250382 0.249616 0.250385 -0.113562 0.113571 -0.113575
299 1 0.311233 0.31362 0.315348 0.0250558 -0.134171 -0.00433447
300 1 0.308631 0.308223 0.433865 0.109763 0.228081 0.160232
301 1 0.249568 0.249496 0.499689 -0.0513209 0.0456582 0.0769523
302 1 0.312256 0.312095 0.562194 -0.00221846 0.0137158 0.00764785
303 1 0.249955 0.249843 0.624737 -0.00119642 0.00140185 0.0831037
304 1 0.312414 0.312339 0.687427 0.000532695 0.00120846 -0.000310626
305 1 0.249931 0.249921 0.750012 -4.54929e-05 0.000114982 0.00025793
306 1 0.312373 0.312412 0.812601 -1.3031e-05 0.00015416 -0.00109591
307 1 0.249793 0.249875 0.875149 -0.00112995 0.000904946 -0.0109936
308 1 0.312089 0.312388 0.937634 8.87733e-05 0.00840988 -0.015077
309 1 0.249841 0.376912 0.999029 -0.0157493 -0.0557594 0.0289479
310 1 0.3144 0.439594 0.0604398 -0.0493449 -0.0175192 0.0714105
311 1 0.246751 0.386179 0.118986 -0.0808234 -0.0397279 0.0372513
312 1 0.314301 0.441584 0.183476 0.0368317 -0.137994 0.0216139
313 1 0.313559 0.439115 0.313202 -0.00468685 0.0155796 -0.0795119
314 1 0.249855 0.379007 0.375908 -0.0602671 -0.102644 -0.288739
315 1 0.31333 0.437837 0.437661 0.00722552 -0.0212771 -0.00719483
316 1 0.251381 0.37635 0.500727 0.000793438 -0.0503031 0.0500328
317 1 0.313045 0.438217 0.563196 -0.00315991 -0.0557791 -0.0583369
318 1 0.250155 0.375078 0.624861 0.0176291 0.0165984 0.0568929
319 1 0.312573 0.437495 0.687586 0.00114696 -0.00275826 -0.00304657
320 1 0.250003 0.374976 0.74999 0.00089578 -0.000322885 0.00148981
321 1 0.312542 0.437535 0.812477 0.00173132 7.02542e-05 -0.00128229
322 1 0.249963 0.375238 0.874962 -0.000974223 -0.0031726 -0.00119414
323 1 0.312837 0.437979 0.937218 0.0132093 0.0162907 -0.0293058
324 1 0.250048 0.501515 0.998748 0.00119663 -0.0549626 0.0377151
325 1 0.312603 0.563034 0.0618262 0.0184925 0.0393869 -0.00532499
326 1 0.248892 0.501981 0.123897 0.00804341 -0.124421 -0.0256322
327 1 0.312893 0.562929 0.186936 0.00506646 0.0205051 -0.00332219
328 1 0.250974 0.499894 0.249157 -0.0108142 0.0828262 -0.0183811
329 1 0.312768 0.562546 0.312395 0.00109489 0.0166581 0.00296545
330 1 0.249997 0.500708 0.375554 0.00891028 -0.0305993 -0.0420928
331 1 0.312721 0.562708 0.437735 -0.00333203 0.00256245 -0.00178315
332 1 0.250049 0.499968 0.500028 0.0065309 0.0233972 0.00767283
333 1 0.312576 0.562573 0.562568 0.00180726 0.00110403 -0.000608285
334 1 0.250158 0.500309 0.625316 -0.00222489 0.00470829 0.00542295
335 1 0.31261 0.562616 0.687613 -0.000975628 0.00167947 0.000775871
336 1 0.250056 0.500077 0.749996 0.000393103 0.000705302 -0.00031976
337 1 0.312599 0.562664 0.812341 0.000269826 0.00113094 -0.000923472
338 1 0.250077 0.50034 0.874692 0.000592744 0.00297307 -0.00401377
339 1 0.31272 0.563172 0.936834 -0.000985323 0.00332277 -0.00127727
340 1 0.249948 0.625465 0.999569 0.00333279 0.00028617 -0.00189622
341 1 0.312511 0.687579 0.0623615 0.0013437 0.00498752 -0.00127763
342 1 0.249826 0.625116 0.1248 -0.00290052 0.008405 -0.00422656
343 1 0.312593 0.687507 0.187375 -0.000949458 -0.000147969 -2.22543e-05
344 1 0.250124 0.624852 0.249795 -0.00090488 0.0109934 -0.00112988
345 1 0.31259 0.687437 0.312417 8.26558e-05 0.000798827 0.000692471
346 1 0.250044 0.624936 0.374953 2.67367e-05 -0.00182427 -0.00274514
347 1 0.312542 0.687474 0.437513 0.00014824 -0.00128966 -0.000896029
348 1 0.250001 0.625001 0.500033 0.00134253 0.000776211 0.000139902
349 1 0.312512 0.687447 0.562562 0.000476372 -9.83842e-07 -0.000305728
350 1 0.250039 0.625034 0.625052 0.000509366 -0.000665161 -0.000882694
351 1 0.312539 0.68747 0.687512 0.000549203 -0.000103586 -0.000251433
352 1 0.250036 0.625108 0.749944 0.000391698 0.000880083 -0.000456963
353 1 0.312564 0.687614 0.812315 0.000396567 6.60554e-05 -0.000432582
354 1 0.25001 0.625354 0.874621 0.000857895 0.000217489 -0.000494263
355 1 0.312555 0.687712 0.937217 0.00154039 0.000427833 -0.000395031
356 1 0.24998 0.750011 0.999839 0.00104425 -0.000452523 -0.000547511
357 1 0.31259 0.812367 0.0623688 0.00127679 0.00263476 0.00158645
358 1 0.249997 0.750014 0.124945 0.000953878 -0.00109861 1.60147e-05
359 1 0.312561 0.812533 0.187499 0.000783398 0.000810074 -0.00124091
360 1 0.250077 0.74999 0.249934 -0.000114991 -0.000257919 -4.552e-05
361 1 0.312656 0.812396 0.312528 -0.00186096 0.00942901 -0.0018033
362 1 0.250056 0.749961 0.374961 -0.000321888 -0.00179782 -0.000445756
363 1 0.312573 0.812347 0.437613 -0.0006078 -0.00354671 0.00249511
364 1 0.250002 0.749887 0.500034 0.000237619 -0.000451041 -0.000306592
365 1 0.312528 0.812197 0.562736 0.000182562 -0.000836093 0.000668013
366 1 0.249982 0.749867 0.625066 0.000307076 -0.000461438 3.88069e-05
367 1 0.312523 0.812296 0.687584 0.000384329 -0.000573048 -0.000106547
368 1 0.249991 0.749957 0.749918 0.000571796 -0.000173719 -0.00031406
369 1 0.312551 0.812373 0.81238 0.000400133 -6.11024e-05 0.000197673
370 1 0.249992 0.75002 0.874775 0.00074623 -0.000399662 -0.000645748
371 1 0.312601 0.812319 0.937243 -0.000373485 -0.000725823 -0.000679469
372 1 0.250091 0.874548 0.999543 -0.00152427 -0.00384694 -0.00350373
373 1 0.313121 0.936613 0.0615954 -0.00136234 0.0441156 0.0458655
374 1 0.250169 0.87506 0.124776 0.0160287 -0.0569958 -0.0172036
375 1 0.312651 0.937516 0.187551 0.00249269 0.00412175 -0.00917976
376 1 0.250155 0.875264 0.249957 -0.00140195 -0.0831035 -0.00119635
377 1 0.313044 0.93593 0.312806 0.0070168 0.173153 0.000169964
378 1 0.250009 0.875024 0.375235 -0.0167325 -0.0491728 0.0165215
379 1 0.312729 0.936672 0.438503 0.0133382 -0.0140827 -0.0159227
380 1 0.249943 0.87454 0.500398 0.00251926 -0.00326273 0.00264201
381 1 0.312626 0.936821 0.563124 -0.00202785 -0.00445301 0.00398016
382 1 0.249929 0.874659 0.625241 -5.94178e-05 -0.000629255 -0.000148827
383 1 0.312544 0.937141 0.687745 -4.52249e-05 -0.00110926 0.000490471
384 1 0.249973 0.874767 0.749992 0.000279029 -0.000282071 0.000298148
385 1 0.312574 0.937239 0.812376 -0.000426028 0.000666541 0.00107655
386 1 0.250008 0.874749 0.874762 0.000548834 0.000330714 0.000626823
387 1 0.312669 0.93711 0.937138 0.000808512 0.00154109 0.000592171
388 1 0.375388 0.999492 0.999609 -0.00390235 0.00633391 -0.00900251
389 1 0.437902 0.0619267 0.0621084 -0.0234059 0.0521805 0.0779938
390 1 0.374419 0.00029005 0.125532 -0.00269012 -0.016404 -0.00502678
391 1 0.439112 0.0609801 0.186129 0.0294859 0.0192018 -0.0011754
392 1 0.377245 0.998287 0.24896 -0.0559084 0.0202281 0.0234222
393 1 0.439112 0.0610623 0.315141 0.0774776 -0.0813416 -0.00447232
394 1 0.3774 0.997221 0.377249 -0.0135779 0.0304233 -0.0124462
395 1 0.437342 0.0626566 0.437344 0.0546157 -0.0546159 0.0546164
396 1 0.37606 0.998519 0.501447 0.0111784 0.0483067 -0.0509878
397 1 0.438659 0.0613059 0.563708 -0.00638824 0.0065467 0.0155958
398 1 0.375327 0.999344 0.625632 -0.000247207 -0.000573089 -5.01415e-05
399 1 0.437765 0.0622183 0.687814 0.00170442 -0.00196424 0.00496613
400 1 0.375106 0.999777 0.750078 0.000210248 -0.000333331 0.00134896
401 1 0.437618 0.0623678 0.812477 -0.000632893 -0.000197811 0.000398883
402 1 0.375202 0.999692 0.874749 -0.00336297 0.00242327 0.00317831
403 1 0.437801 0.0621703 0.937202 -0.00284462 0.00175404 -0.00111613
404 1 0.375408 0.1244 0.999437 0.00156459 -0.00559869 -0.0162475
405 1 0.437659 0.186668 0.0621639 -0.00719443 -0.00722549 0.0212773
406 1 0.375012 0.124226 0.125497 0.0929676 0.0624086 -0.00482082
407 1 0.433862 0.191368 0.191778 0.160233 -0.109766 -0.22808
408 1 0.38294 0.118357 0.250239 -0.0693305 0.0136998 -0.0375027
409 1 0.448751 0.184252 0.316396 -0.00255819 -0.050641 0.0337759
410 1 0.371321 0.128678 0.371323 0.231174 -0.231175 0.231178
411 1 0.438936 0.18486 0.439114 0.0813416 0.00447277 0.0774781
412 1 0.377246 0.122598 0.50278 -0.0124475 0.0135787 -0.0304246
413 1 0.4385 0.187269 0.563329 -0.0159227 -0.0133382 0.0140826
414 1 0.375398 0.124526 0.625342 0.0162067 -0.0160889 0.0289747
415 1 0.437611 0.187425 0.687654 0.00249512 0.000607693 0.00354668
416 1 0.375051 0.124881 0.750066 -9.95272e-05 -0.000146521 0.00184385
417 1 0.437511 0.187457 0.812527 -0.000896018 -0.000148372 0.0012896
418 1 0.375037 0.124841 0.874907 0.000827592 -0.000875581 -0.000212938
419 1 0.437732 0.187278 0.937293 -0.00178305 0.00333209 -0.00256245
420 1 0.375552 0.250001 0.999294 -0.0420958 -0.00891033 0.0306024
421 1 0.437789 0.313107 0.0624997 0.104471 0.00716794 -0.091227
422 1 0.375906 0.250144 0.120994 -0.288741 0.0602649 0.102645
423 1 0.448948 0.315993 0.183599 0.0811912 0.0871679 -0.0474957
424 1 0.434221 0.30945 0.310763 0.150821 0.152944 -0.0782216
425 1 0.381641 0.249762 0.382943 -0.0137002 0.0375033 -0.0693305
426 1 0.439018 0.313872 0.439115 -0.0192003 0.00117518 0.0294852
427 1 0.376652 0.250882 0.501665 -0.0381579 -0.0209558 -0.0339442
428 1 0.438348 0.313027 0.563203 -0.0447781 0.0102964 -0.0252385
429 1 0.375232 0.249989 0.624977 0.0165211 0.0167326 0.0491724
430 1 0.437533 0.312514 0.687624 -0.00202918 0.00116987 -0.000341609
431 1 0.374958 0.249943 0.75004 -0.000445806 0.000321799 0.00179779
432 1 0.437451 0.312473 0.812561 -0.0011235 -0.00012758 0.000538997
433 1 0.37495 0.249954 0.875065 -0.00274531 -2.67312e-05 0.00182439
434 1 0.437644 0.312654 0.937448 0.00130657 0.000182962 -0.00676372
435 1 0.374887 0.374809 0.000240481 0.0272356 0.0130403 -0.0594288
436 1 0.437537 0.437736 0.0620929 -0.0223253 -0.000161908 0.00179016
437 1 0.375273 0.373275 0.126407 -0.122934 -0.0161594 -0.0176585
438 1 0.439367 0.438588 0.185944 0.0184978 0.0516207 0.000328368
439 1 0.377092 0.381245 0.248689 -0.21831 -0.0349486 -0.0492512
440 1 0.438214 0.438282 0.313306 0.0186227 0.00616037 -0.00854649
441 1 0.375772 0.374505 0.375015 -0.0624084 0.00481938 0.0929669
442 1 0.438072 0.437893 0.437905 -0.0521798 -0.0779933 -0.0234062
443 1 0.373909 0.374066 0.499182 0.0384885 0.0209305 0.0407804
444 1 0.43721 0.437249 0.562392 0.00242731 0.00124477 0.00224396
445 1 0.374849 0.374771 0.624846 0.0052077 0.00562395 0.0255688
446 1 0.437389 0.43738 0.68753 0.00115958 0.000818756 0.00452798