ITEM: TIMESTEP
0
ITEM: NUMBER OF ATOMS
1026
ITEM: BOX BOUNDS pp pp pp
0.0000000000000000e+00 2.2857118000000000e+01
0.0000000000000000e+00 2.2857118000000000e+01
0.0000000000000000e+00 2.2857118000000000e+01
ITEM: ATOMS id type xs ys zs fx fy fz
1 1 0.215364 0.215364 0.142178 0.109017 0.109017 0.113056
2 1 0.284636 0.284636 0.142178 -0.109016 -0.109016 0.11306
3 1 0.215364 0.142178 0.215364 0.109017 0.113056 0.109017
4 1 0.142178 0.215364 0.215364 0.113056 0.109017 0.109017
5 1 0.357822 0.284636 0.215364 -0.113067 -0.109022 0.109022
6 1 0.284636 0.357822 0.215364 -0.109022 -0.113067 0.109022
7 1 0.284636 0.142178 0.284636 -0.109016 0.11306 -0.109016
8 1 0.357822 0.215364 0.284636 -0.113067 0.109022 -0.109022
9 1 0.142178 0.284636 0.284636 0.11306 -0.109016 -0.109016
10 1 0.215364 0.357822 0.284636 0.109022 -0.113067 -0.109022
11 1 0.284636 0.215364 0.357822 -0.109022 0.109022 -0.113067
12 1 0.215364 0.284636 0.357822 0.109022 -0.109022 -0.113067
13 1 7.68245e-06 7.68245e-06 7.68245e-06 -0.00205567 -0.00205567 -0.00205567
14 1 0.0634237 0.0634237 0.0634237 -0.0920731 -0.0920731 -0.0920731
15 1 0.99883 0.99883 0.124204 0.0802386 0.0802386 -0.00422188
16 1 0.0616883 0.0616883 0.185216 -0.0849336 -0.0849336 -0.00303669
17 1 0.999623 0.999623 0.249898 0.010859 0.010859 -0.00244097
18 1 0.0614888 0.0614888 0.313778 0.0175834 0.0175834 2.71494e-05
19 1 0.999694 0.999694 0.375371 -0.0235752 -0.0235752 0.00732074
20 1 0.0617202 0.0617202 0.43828 0.106078 0.106078 -0.106078
21 1 0.999623 0.999623 0.500377 0.0107743 0.0107743 -0.0107743
22 1 0.0627205 0.0627205 0.562366 -0.00144853 -0.00144853 0.00064513
23 1 6.41168e-06 6.41168e-06 0.624992 -0.00144265 -0.00144265 0.00269812
24 1 0.062496 0.062496 0.687491 -0.000690142 -0.000690142 0.0049132
25 1 0.9999 0.9999 0.749893 -0.000731671 -0.000731671 0.00175773
26 1 0.0623286 0.0623286 0.812312 -0.000262932 -0.000262932 -0.00110458
27 1 0.999639 0.999639 0.87459 0.000599931 0.000599931 -0.00334922
28 1 0.0617337 0.0617337 0.936805 0.00150049 0.00150049 -0.0202548
29 1 0.99883 0.124204 0.99883 0.0802386 -0.00422188 0.0802386
30 1 0.0616883 0.185216 0.0616883 -0.0849336 -0.00303669 -0.0849336
31 1 0.998001 0.123388 0.123388 0.0585546 0.00880466 0.00880466
32 1 0.0527601 0.185103 0.185103 0.0349848 -0.0699074 -0.0699074
33 1 0.9989 0.123671 0.251158 0.00901746 0.0265921 -0.0113077
34 1 0.0673354 0.191586 0.308414 -0.302123 -0.144871 0.144872
35 1 0.000853782 0.126041 0.373959 -0.0535894 -0.0450615 0.0450615
36 1 0.0614888 0.186222 0.438511 0.0175835 -2.71106e-05 -0.0175837
37 1 0.999694 0.124629 0.500306 -0.0235752 -0.00732077 0.0235752
38 1 0.061623 0.186959 0.563189 0.0602818 -0.00396622 -0.0473103
39 1 0.999679 0.124697 0.625329 0.00685536 -0.000425451 -0.00794184
40 1 0.0624186 0.187426 0.687575 0.00149801 0.000178278 -0.00217079
41 1 0.999889 0.124931 0.749994 0.000103098 -0.000967551 -0.00101887
42 1 0.06242 0.187484 0.812459 -0.00139265 0.000507776 -0.00208577
43 1 0.999631 0.124815 0.874637 -0.000710627 0.000830916 -1.21779e-05
44 1 0.0617954 0.187444 0.937078 0.00801312 -0.00767086 -0.0208899
45 1 0.999623 0.249898 0.999623 0.010859 -0.00244097 0.010859
46 1 0.0614888 0.313778 0.0614888 0.0175834 2.71494e-05 0.0175834
47 1 0.9989 0.251158 0.123671 0.00901746 -0.0113077 0.0265921
48 1 0.0673354 0.308414 0.191586 -0.302123 0.144872 -0.144871
49 1 0.998962 0.25 0.25 -0.208424 1.16033e-08 1.16033e-08
50 1 0.0527601 0.314897 0.314897 0.0349832 0.0699082 0.0699082
51 1 0.9989 0.248842 0.376329 0.00901754 0.0113078 -0.0265921
52 1 0.0616883 0.314784 0.438312 -0.0849332 0.00303667 0.0849336
53 1 0.999623 0.250102 0.500377 0.0108589 0.002441 -0.0108589
54 1 0.0617954 0.312556 0.562922 0.00801329 0.00767075 0.0208898
55 1 0.999674 0.249961 0.625305 -0.00189702 0.00258599 0.00326674
56 1 0.06242 0.312516 0.687541 -0.00139262 -0.000507776 0.00208577
57 1 0.999909 0.25 0.75 -5.24913e-05 1.90262e-10 -2.37325e-09
58 1 0.0624186 0.312574 0.812425 0.00149799 -0.000178248 0.00217076
59 1 0.999674 0.250039 0.874695 -0.00189701 -0.00258605 -0.00326673
60 1 0.061623 0.313041 0.936811 0.060282 0.00396611 0.0473105
61 1 0.999694 0.375371 0.999694 -0.0235752 0.00732074 -0.0235752
62 1 0.0617202 0.43828 0.0617202 0.106078 -0.106078 0.106078
63 1 0.000853782 0.373959 0.126041 -0.0535894 0.0450615 -0.0450615
64 1 0.0614888 0.438511 0.186222 0.0175835 -0.0175837 -2.71106e-05
65 1 0.9989 0.376329 0.248842 0.00901754 -0.0265921 0.0113078
66 1 0.0616883 0.438312 0.314784 -0.0849332 0.0849336 0.00303667
67 1 0.998001 0.376612 0.376612 0.0585547 -0.00880484 -0.00880484
68 1 0.0634237 0.436576 0.436576 -0.0920733 0.092073 0.092073
69 1 0.99883 0.375796 0.50117 0.0802384 0.00422193 -0.0802386
70 1 0.0617337 0.438266 0.563195 0.00150019 -0.00150015 0.0202551
71 1 0.999631 0.375185 0.625363 -0.000710643 -0.000830852 1.22042e-05
72 1 0.0623286 0.437671 0.687688 -0.000262901 0.000262904 0.00110454
73 1 0.999889 0.375069 0.750006 0.000103101 0.000967548 0.00101888
74 1 0.062496 0.437504 0.812509 -0.000690138 0.000690133 -0.00491319
75 1 0.999679 0.375303 0.874671 0.00685533 0.000425476 0.00794181
76 1 0.0627205 0.43728 0.937634 -0.00144852 0.00144852 -0.000645109
77 1 0.999623 0.500377 0.999623 0.0107743 -0.0107743 0.0107743
78 1 0.0627205 0.562366 0.0627205 -0.00144853 0.00064513 -0.00144853
79 1 0.999694 0.500306 0.124629 -0.0235752 0.0235752 -0.00732077
80 1 0.061623 0.563189 0.186959 0.0602818 -0.0473103 -0.00396622
81 1 0.999623 0.500377 0.250102 0.0108589 -0.0108589 0.002441
82 1 0.0617954 0.562922 0.312556 0.00801329 0.0208898 0.00767075
83 1 0.99883 0.50117 0.375796 0.0802384 -0.0802386 0.00422193
84 1 0.0617337 0.563195 0.438266 0.00150019 0.0202551 -0.00150015
85 1 7.68235e-06 0.499992 0.499992 -0.00205564 0.00205566 0.00205566
86 1 0.0619882 0.563084 0.563084 -0.00326824 -0.00838882 -0.00838882
87 1 0.999639 0.500361 0.62541 0.000599977 -0.000599974 0.00334917
88 1 0.0623307 0.56273 0.687693 -0.00021162 0.000330036 0.00107454
89 1 0.9999 0.5001 0.750107 -0.000731675 0.000731675 -0.00175773
90 1 0.06233 0.562664 0.812396 0.000253891 -0.0015213 0.00232684
91 1 6.41168e-06 0.499994 0.875008 -0.00144266 0.00144265 -0.00269812
92 1 0.0623553 0.56264 0.93736 -0.00119786 0.00460099 -0.00460099
93 1 6.41168e-06 0.624992 6.41168e-06 -0.00144265 0.00269812 -0.00144265
94 1 0.062496 0.687491 0.062496 -0.000690142 0.0049132 -0.000690142
95 1 0.999679 0.625329 0.124697 0.00685536 -0.00794184 -0.000425451
96 1 0.0624186 0.687575 0.187426 0.00149801 -0.00217079 0.000178278
97 1 0.999674 0.625305 0.249961 -0.00189702 0.00326674 0.00258599
98 1 0.06242 0.687541 0.312516 -0.00139262 0.00208577 -0.000507776
99 1 0.999631 0.625363 0.375185 -0.000710643 1.22042e-05 -0.000830852
100 1 0.0623286 0.687688 0.437671 -0.000262901 0.00110454 0.000262904
101 1 0.999639 0.62541 0.500361 0.000599977 0.00334917 -0.000599974
102 1 0.0623307 0.687693 0.56273 -0.00021162 0.00107454 0.000330036
103 1 0.999698 0.625291 0.625291 5.12722e-05 -0.00269558 -0.00269558
104 1 0.0623682 0.687606 0.687606 0.000703354 0.000397159 0.000397159
105 1 0.999837 0.625139 0.750053 0.000277335 -0.000443121 0.000501798
106 1 0.0623767 0.687554 0.812446 3.75006e-05 -0.000125946 0.000125943
107 1 0.999903 0.62506 0.87494 -0.00051293 0.00145742 -0.00145743
108 1 0.06233 0.687604 0.937336 0.000253893 -0.00232684 0.0015213
109 1 0.9999 0.749893 0.9999 -0.000731671 0.00175773 -0.000731671
110 1 0.0623286 0.812312 0.0623286 -0.000262932 -0.00110458 -0.000262932
111 1 0.999889 0.749994 0.124931 0.000103098 -0.00101887 -0.000967551
112 1 0.06242 0.812459 0.187484 -0.00139265 -0.00208577 0.000507776
113 1 0.999909 0.75 0.25 -5.24913e-05 -2.37328e-09 1.90217e-10
114 1 0.0624186 0.812425 0.312574 0.00149799 0.00217076 -0.000178248
115 1 0.999889 0.750006 0.375069 0.000103101 0.00101888 0.000967548
116 1 0.062496 0.812509 0.437504 -0.000690138 -0.00491319 0.000690133
117 1 0.9999 0.750107 0.5001 -0.000731675 -0.00175773 0.000731675
118 1 0.06233 0.812396 0.562664 0.000253891 0.00232684 -0.0015213
119 1 0.999837 0.750053 0.625139 0.000277335 0.000501798 -0.000443121
120 1 0.0623767 0.812446 0.687554 3.75006e-05 0.000125943 -0.000125946
121 1 0.999856 0.75 0.75 0.000471458 -5.69627e-10 -5.69651e-10
122 1 0.0623682 0.812394 0.812394 0.000703355 -0.000397156 -0.000397156
123 1 0.999837 0.749947 0.874861 0.000277328 -0.000501793 0.00044312
124 1 0.0623307 0.812307 0.93727 -0.000211618 -0.00107454 -0.000330041
125 1 0.999639 0.87459 0.999639 0.000599931 -0.00334922 0.000599931
126 1 0.0617337 0.936805 0.0617337 0.00150049 -0.0202548 0.00150049
127 1 0.999631 0.874637 0.124815 -0.000710627 -1.21779e-05 0.000830916
128 1 0.0617954 0.937078 0.187444 0.00801312 -0.0208899 -0.00767086
129 1 0.999674 0.874695 0.250039 -0.00189701 -0.00326673 -0.00258605
130 1 0.061623 0.936811 0.313041 0.060282 0.0473105 0.00396611
131 1 0.999679 0.874671 0.375303 0.00685533 0.00794181 0.000425476
132 1 0.0627205 0.937634 0.43728 -0.00144852 -0.000645109 0.00144852
133 1 6.41168e-06 0.875008 0.499994 -0.00144266 -0.00269812 0.00144265
134 1 0.0623553 0.93736 0.56264 -0.00119786 -0.00460099 0.00460099
135 1 0.999903 0.87494 0.62506 -0.00051293 -0.00145743 0.00145742
136 1 0.06233 0.937336 0.687604 0.000253893 0.0015213 -0.00232684
137 1 0.999837 0.874861 0.749947 0.000277328 0.00044312 -0.000501793
138 1 0.0623307 0.93727 0.812307 -0.000211618 -0.000330041 -0.00107454
139 1 0.999698 0.874709 0.874709 5.12789e-05 0.00269559 0.00269559
140 1 0.0619882 0.936916 0.936916 -0.00326829 0.00838877 0.00838877
141 1 0.124204 0.99883 0.99883 -0.00422188 0.0802386 0.0802386
142 1 0.185216 0.0616883 0.0616883 -0.00303669 -0.0849336 -0.0849336
143 1 0.123388 0.998001 0.123388 0.00880466 0.0585546 0.00880466
144 1 0.185103 0.0527601 0.185103 -0.0699074 0.0349848 -0.0699074
145 1 0.123671 0.9989 0.251158 0.0265921 0.00901746 -0.0113077
146 1 0.191586 0.0673354 0.308414 -0.144871 -0.302123 0.144872
147 1 0.126041 0.000853782 0.373959 -0.0450615 -0.0535894 0.0450615
148 1 0.186222 0.0614888 0.438511 -2.71106e-05 0.0175835 -0.0175837
149 1 0.124629 0.999694 0.500306 -0.00732077 -0.0235752 0.0235752
150 1 0.186959 0.061623 0.563189 -0.00396622 0.0602818 -0.0473103
151 1 0.124697 0.999679 0.625329 -0.000425451 0.00685536 -0.00794184
152 1 0.187426 0.0624186 0.687575 0.000178278 0.00149801 -0.00217079
153 1 0.124931 0.999889 0.749994 -0.000967551 0.000103098 -0.00101887
154 1 0.187484 0.06242 0.812459 0.000507776 -0.00139265 -0.00208577
155 1 0.124815 0.999631 0.874637 0.000830916 -0.000710627 -1.21779e-05
156 1 0.187444 0.0617954 0.937078 -0.00767086 0.00801312 -0.0208899
157 1 0.123388 0.123388 0.998001 0.00880466 0.00880466 0.0585546
158 1 0.185103 0.185103 0.0527601 -0.0699074 -0.0699074 0.0349848
159 1 0.130336 0.130336 0.130336 -0.274698 -0.274698 -0.274698
160 1 0.118746 0.118746 0.249778 0.0297852 0.0297852 0.0313696
161 1 0.185996 0.185996 0.314004 0.0672836 0.0672836 -0.0672821
162 1 0.124665 0.124665 0.375335 0.0184276 0.0184276 -0.0184275
163 1 0.191586 0.191586 0.432665 -0.144872 -0.144872 0.302123
164 1 0.126041 0.126041 0.499146 -0.0450615 -0.0450615 0.0535894
165 1 0.187546 0.187546 0.562351 -0.00894754 -0.00894754 -0.00513462
166 1 0.125055 0.125055 0.624865 -0.00653399 -0.00653399 0.0285573
167 1 0.187515 0.187515 0.687428 -0.00122123 -0.00122123 -0.000118609
168 1 0.124967 0.124967 0.749975 0.000238385 0.000238385 5.65177e-07
169 1 0.187446 0.187446 0.812455 0.000874911 0.000874911 0.00846297
170 1 0.124669 0.124669 0.874826 -0.0140872 -0.0140872 -0.0315868
171 1 0.187102 0.187102 0.936142 -0.00198278 -0.00198278 0.128804
172 1 0.123671 0.251158 0.9989 0.0265921 -0.0113077 0.00901746
173 1 0.191586 0.308414 0.0673354 -0.144871 0.144872 -0.302123
174 1 0.118746 0.249778 0.118746 0.0297852 0.0313696 0.0297852
175 1 0.185996 0.314004 0.185996 0.0672836 -0.0672821 0.0672836
176 1 0.118746 0.250222 0.381254 0.0297842 -0.0313702 -0.0297852
177 1 0.185103 0.314897 0.44724 -0.069911 0.0699111 -0.0349742
178 1 0.123671 0.248842 0.5011 0.0265928 0.0113088 -0.00901772
179 1 0.187102 0.312898 0.563858 -0.00198302 0.00198298 -0.128805
180 1 0.124785 0.249895 0.624876 -0.0195313 -0.0128914 0.0560356
181 1 0.187446 0.312554 0.687545 0.000874954 -0.000874949 -0.00846288
182 1 0.124973 0.25 0.75 -0.000645823 7.3616e-09 -1.81382e-08
183 1 0.187515 0.312485 0.812572 -0.00122126 0.00122126 0.000118578
184 1 0.124785 0.250105 0.875124 -0.0195311 0.0128913 -0.0560354
185 1 0.187546 0.312454 0.937649 -0.00894756 0.00894754 0.00513451
186 1 0.126041 0.373959 0.000853782 -0.0450615 0.0450615 -0.0535894
187 1 0.186222 0.438511 0.0614888 -2.71106e-05 -0.0175837 0.0175835
188 1 0.124665 0.375335 0.124665 0.0184276 -0.0184275 0.0184276
189 1 0.191586 0.432665 0.191586 -0.144872 0.302123 -0.144872
190 1 0.118746 0.381254 0.250222 0.0297842 -0.0297852 -0.0313702
191 1 0.185103 0.44724 0.314897 -0.069911 -0.0349742 0.0699111
192 1 0.130336 0.369664 0.369664 -0.2747 0.274699 0.274699
193 1 0.185216 0.438312 0.438312 -0.00303655 0.0849333 0.0849333
194 1 0.123388 0.376612 0.501999 0.00880667 -0.00880673 -0.0585558
195 1 0.187444 0.438205 0.562922 -0.00767076 -0.00801325 0.0208898
196 1 0.124669 0.375331 0.625174 -0.0140873 0.0140873 0.031587
197 1 0.187484 0.43758 0.687541 0.000507777 0.00139262 0.00208576
198 1 0.124967 0.375033 0.750025 0.000238388 -0.000238391 -5.76777e-07
199 1 0.187426 0.437581 0.812425 0.000178245 -0.00149799 0.00217076
200 1 0.125055 0.374945 0.875135 -0.00653399 0.00653398 -0.0285573
201 1 0.186959 0.438377 0.936811 -0.00396611 -0.0602819 0.0473105
202 1 0.124629 0.500306 0.999694 -0.00732077 0.0235752 -0.0235752
203 1 0.186959 0.563189 0.061623 -0.00396622 -0.0473103 0.0602818
204 1 0.126041 0.499146 0.126041 -0.0450615 0.0535894 -0.0450615
205 1 0.187546 0.562351 0.187546 -0.00894754 -0.00513462 -0.00894754
206 1 0.123671 0.5011 0.248842 0.0265928 -0.00901772 0.0113088
207 1 0.187102 0.563858 0.312898 -0.00198302 -0.128805 0.00198298
208 1 0.123388 0.501999 0.376612 0.00880667 -0.0585558 -0.00880673
209 1 0.187444 0.562922 0.438205 -0.00767076 0.0208898 -0.00801325
210 1 0.124204 0.50117 0.50117 -0.00422194 -0.0802383 -0.0802383
211 1 0.187493 0.562913 0.562913 0.00231298 0.00314538 0.00314538
212 1 0.124815 0.500369 0.625363 0.000830858 0.000710641 1.2175e-05
213 1 0.187464 0.562697 0.687654 0.000300982 0.000474153 8.34149e-05
214 1 0.124931 0.500111 0.750006 -0.000967549 -0.000103102 0.00101887
215 1 0.187423 0.562666 0.81238 0.000816427 0.00105743 -0.00144112
216 1 0.124697 0.500321 0.874671 -0.000425478 -0.00685533 0.00794181
217 1 0.187375 0.562745 0.937255 -0.00204717 0.00317815 -0.00317814
218 1 0.124697 0.625329 0.999679 -0.000425451 -0.00794184 0.00685536
219 1 0.187426 0.687575 0.0624186 0.000178278 -0.00217079 0.00149801
220 1 0.125055 0.624865 0.125055 -0.00653399 0.0285573 -0.00653399
221 1 0.187515 0.687428 0.187515 -0.00122123 -0.000118609 -0.00122123
222 1 0.124785 0.624876 0.249895 -0.0195313 0.0560356 -0.0128914
223 1 0.187446 0.687545 0.312554 0.000874954 -0.00846288 -0.000874949
224 1 0.124669 0.625174 0.375331 -0.0140873 0.031587 0.0140873
225 1 0.187484 0.687541 0.43758 0.000507777 0.00208576 0.00139262
226 1 0.124815 0.625363 0.500369 0.000830858 1.2175e-05 0.000710641
227 1 0.187464 0.687654 0.562697 0.000300982 8.34149e-05 0.000474153
228 1 0.124897 0.625233 0.625233 0.000499588 0.00112582 0.00112582
229 1 0.187465 0.68759 0.68759 -0.000194185 0.000141312 0.000141312
230 1 0.124908 0.625135 0.750026 0.000403559 0.000615142 -0.000470635
231 1 0.187438 0.687578 0.812422 0.000119809 -0.000101961 0.00010196
232 1 0.124878 0.625136 0.874864 -0.000591425 0.0004021 -0.000402099
233 1 0.187423 0.68762 0.937334 0.000816432 0.00144111 -0.00105743
234 1 0.124931 0.749994 0.999889 -0.000967551 -0.00101887 0.000103098
235 1 0.187484 0.812459 0.06242 0.000507776 -0.00208577 -0.00139265
236 1 0.124967 0.749975 0.124967 0.000238385 5.65177e-07 0.000238385
237 1 0.187446 0.812455 0.187446 0.000874911 0.00846297 0.000874911
238 1 0.124973 0.75 0.25 -0.000645823 -1.81381e-08 7.36159e-09
239 1 0.187515 0.812572 0.312485 -0.00122126 0.000118578 0.00122126
240 1 0.124967 0.750025 0.375033 0.000238388 -5.76777e-07 -0.000238391
241 1 0.187426 0.812425 0.437581 0.000178245 0.00217076 -0.00149799
242 1 0.124931 0.750006 0.500111 -0.000967549 0.00101887 -0.000103102
243 1 0.187423 0.81238 0.562666 0.000816427 -0.00144112 0.00105743
244 1 0.124908 0.750026 0.625135 0.000403559 -0.000470635 0.000615142
245 1 0.187438 0.812422 0.687578 0.000119809 0.00010196 -0.000101961
246 1 0.124912 0.75 0.75 0.000121459 -9.24945e-10 -9.24976e-10
247 1 0.187465 0.81241 0.81241 -0.000194184 -0.000141308 -0.000141308
248 1 0.124908 0.749974 0.874865 0.000403563 0.000470642 -0.000615138
249 1 0.187464 0.812346 0.937303 0.000300984 -8.34131e-05 -0.000474153
250 1 0.124815 0.874637 0.999631 0.000830916 -1.21779e-05 -0.000710627
251 1 0.187444 0.937078 0.0617954 -0.00767086 -0.0208899 0.00801312
252 1 0.124669 0.874826 0.124669 -0.0140872 -0.0315868 -0.0140872
253 1 0.187102 0.936142 0.187102 -0.00198278 0.128804 -0.00198278
254 1 0.124785 0.875124 0.250105 -0.0195311 -0.0560354 0.0128913
255 1 0.187546 0.937649 0.312454 -0.00894756 0.00513451 0.00894754
256 1 0.125055 0.875135 0.374945 -0.00653399 -0.0285573 0.00653398
257 1 0.186959 0.936811 0.438377 -0.00396611 0.0473105 -0.0602819
258 1 0.124697 0.874671 0.500321 -0.000425478 0.00794181 -0.00685533
259 1 0.187375 0.937255 0.562745 -0.00204717 -0.00317814 0.00317815
260 1 0.124878 0.874864 0.625136 -0.000591425 -0.000402099 0.0004021
261 1 0.187423 0.937334 0.68762 0.000816432 -0.00105743 0.00144111
262 1 0.124908 0.874865 0.749974 0.000403563 -0.000615138 0.000470642
263 1 0.187464 0.937303 0.812346 0.000300984 -0.000474153 -8.34131e-05
264 1 0.124897 0.874767 0.874767 0.00049958 -0.00112583 -0.00112583
265 1 0.187493 0.937087 0.937087 0.002313 -0.00314541 -0.00314541
266 1 0.249898 0.999623 0.999623 -0.00244097 0.010859 0.010859
267 1 0.313778 0.0614888 0.0614888 2.71494e-05 0.0175834 0.0175834
268 1 0.251158 0.9989 0.123671 -0.0113077 0.00901746 0.0265921
269 1 0.308414 0.0673354 0.191586 0.144872 -0.302123 -0.144871
270 1 0.25 0.998962 0.25 1.16034e-08 -0.208424 1.16033e-08
271 1 0.314897 0.0527601 0.314897 0.0699082 0.0349832 0.0699082
272 1 0.248842 0.9989 0.376329 0.0113078 0.00901754 -0.0265921
273 1 0.314784 0.0616883 0.438312 0.00303667 -0.0849332 0.0849336
274 1 0.250102 0.999623 0.500377 0.002441 0.0108589 -0.0108589
275 1 0.312556 0.0617954 0.562922 0.00767075 0.00801329 0.0208898
276 1 0.249961 0.999674 0.625305 0.00258599 -0.00189702 0.00326674
277 1 0.312516 0.06242 0.687541 -0.000507776 -0.00139262 0.00208577
278 1 0.25 0.999909 0.75 1.90183e-10 -5.24913e-05 -2.37327e-09
279 1 0.312574 0.0624186 0.812425 -0.000178248 0.00149799 0.00217076
280 1 0.250039 0.999674 0.874695 -0.00258605 -0.00189701 -0.00326673
281 1 0.313041 0.061623 0.936811 0.00396611 0.060282 0.0473105
282 1 0.251158 0.123671 0.9989 -0.0113077 0.0265921 0.00901746
283 1 0.308414 0.191586 0.0673354 0.144872 -0.144871 -0.302123
284 1 0.249778 0.118746 0.118746 0.0313696 0.0297852 0.0297852
285 1 0.314004 0.185996 0.185996 -0.0672821 0.0672836 0.0672836
286 1 0.250222 0.118746 0.381254 -0.0313702 0.0297842 -0.0297852
287 1 0.314897 0.185103 0.44724 0.0699111 -0.069911 -0.0349742
288 1 0.248842 0.123671 0.5011 0.0113088 0.0265928 -0.00901772
289 1 0.312898 0.187102 0.563858 0.00198298 -0.00198302 -0.128805
290 1 0.249895 0.124785 0.624876 -0.0128914 -0.0195313 0.0560356
291 1 0.312554 0.187446 0.687545 -0.000874949 0.000874954 -0.00846288
292 1 0.25 0.124973 0.75 7.3616e-09 -0.000645823 -1.81382e-08
293 1 0.312485 0.187515 0.812572 0.00122126 -0.00122126 0.000118578
294 1 0.250105 0.124785 0.875124 0.0128913 -0.0195311 -0.0560354
295 1 0.312454 0.187546 0.937649 0.00894754 -0.00894756 0.00513451
296 1 0.25 0.25 0.998962 1.16033e-08 1.16034e-08 -0.208424
297 1 0.314897 0.314897 0.0527601 0.0699082 0.0699082 0.0349832
298 1 0.25 0.25 0.25 1.97478e-06 1.97478e-06 1.97478e-06
299 1 0.314004 0.314004 0.314004 -0.0672844 -0.0672844 -0.0672844
300 1 0.308414 0.308414 0.432665 0.144872 0.144872 0.302123
301 1 0.25 0.25 0.501038 -2.7069e-08 -2.7069e-08 0.208423
302 1 0.312454 0.312454 0.562351 0.00894756 0.00894756 -0.0051346
303 1 0.25 0.25 0.624842 4.33615e-09 4.33622e-09 0.0744419
304 1 0.312485 0.312485 0.687428 0.00122123 0.00122123 -0.000118626
305 1 0.25 0.25 0.75 -3.51819e-09 -3.51824e-09 -6.11719e-08
306 1 0.312554 0.312554 0.812455 -0.000874921 -0.000874921 0.008463
307 1 0.25 0.25 0.875158 2.19632e-08 2.19632e-08 -0.0744415
308 1 0.312898 0.312898 0.936142 0.00198278 0.00198278 0.128804
309 1 0.248842 0.376329 0.9989 0.0113078 -0.0265921 0.00901754
310 1 0.314784 0.438312 0.0616883 0.00303667 0.0849336 -0.0849332
311 1 0.250222 0.381254 0.118746 -0.0313702 -0.0297852 0.0297842
312 1 0.314897 0.44724 0.185103 0.0699111 -0.0349742 -0.069911
313 1 0.308414 0.432665 0.308414 0.144872 0.302123 0.144872
314 1 0.249778 0.381254 0.381254 0.0313707 -0.0297841 -0.0297841
315 1 0.313778 0.438511 0.438511 2.70254e-05 -0.0175838 -0.0175838
316 1 0.251158 0.376329 0.5011 -0.0113089 -0.0265928 -0.00901787
317 1 0.313041 0.438377 0.563189 0.00396622 -0.0602818 -0.0473103
318 1 0.250105 0.375215 0.624876 0.0128914 0.0195313 0.0560356
319 1 0.312574 0.437581 0.687575 -0.000178287 -0.00149801 -0.00217081
320 1 0.25 0.375027 0.75 -1.19241e-08 0.000645821 -2.22468e-08
321 1 0.312516 0.43758 0.812459 -0.000507783 0.00139265 -0.00208576
322 1 0.249895 0.375215 0.875124 -0.0128913 0.0195311 -0.0560354
323 1 0.312556 0.438205 0.937078 0.00767086 -0.0080131 -0.0208899
324 1 0.250102 0.500377 0.999623 0.002441 -0.0108589 0.0108589
325 1 0.312556 0.562922 0.0617954 0.00767075 0.0208898 0.00801329
326 1 0.248842 0.5011 0.123671 0.0113088 -0.00901772 0.0265928
327 1 0.312898 0.563858 0.187102 0.00198298 -0.128805 -0.00198302
328 1 0.25 0.501038 0.25 -2.70689e-08 0.208423 -2.7069e-08
329 1 0.312454 0.562351 0.312454 0.00894756 -0.0051346 0.00894756
330 1 0.251158 0.5011 0.376329 -0.0113089 -0.00901787 -0.0265928
331 1 0.313041 0.563189 0.438377 0.00396622 -0.0473103 -0.0602818
332 1 0.249898 0.500377 0.500377 -0.00244098 -0.0108588 -0.0108588
333 1 0.312625 0.562745 0.562745 0.00204717 0.00317812 0.00317812
334 1 0.250039 0.500326 0.625305 -0.00258599 0.001897 0.00326673
335 1 0.312577 0.562666 0.68762 -0.000816437 0.00105743 0.00144111
336 1 0.25 0.500091 0.75 5.80808e-10 5.24958e-05 -3.25475e-10
337 1 0.312536 0.562697 0.812346 -0.000300986 0.000474158 -8.34228e-05
338 1 0.249961 0.500326 0.874695 0.00258605 0.001897 -0.00326671
339 1 0.312507 0.562913 0.937087 -0.00231301 0.00314538 -0.00314541
340 1 0.249961 0.625305 0.999674 0.00258599 0.00326674 -0.00189702
341 1 0.312516 0.687541 0.06242 -0.000507776 0.00208577 -0.00139262
342 1 0.249895 0.624876 0.124785 -0.0128914 0.0560356 -0.0195313
343 1 0.312554 0.687545 0.187446 -0.000874949 -0.00846288 0.000874954
344 1 0.25 0.624842 0.25 4.33615e-09 0.0744419 4.3362e-09
345 1 0.312485 0.687428 0.312485 0.00122123 -0.000118626 0.00122123
346 1 0.250105 0.624876 0.375215 0.0128914 0.0560356 0.0195313
347 1 0.312574 0.687575 0.437581 -0.000178287 -0.00217081 -0.00149801
348 1 0.250039 0.625305 0.500326 -0.00258599 0.00326673 0.001897
349 1 0.312577 0.68762 0.562666 -0.000816437 0.00144111 0.00105743
350 1 0.25006 0.625198 0.625198 -0.000395809 -0.000510818 -0.000510818
351 1 0.312562 0.687578 0.687578 -0.000119806 -0.000101957 -0.000101957
352 1 0.25 0.625132 0.75 3.02204e-09 0.000429108 5.20437e-09
353 1 0.312535 0.68759 0.81241 0.000194186 0.000141306 -0.000141308
354 1 0.24994 0.625198 0.874802 0.000395807 -0.000510819 0.000510821
355 1 0.312536 0.687654 0.937303 -0.000300989 8.34146e-05 -0.000474151
356 1 0.25 0.75 0.999909 1.90191e-10 -2.37324e-09 -5.24913e-05
357 1 0.312574 0.812425 0.0624186 -0.000178248 0.00217076 0.00149799
358 1 0.25 0.75 0.124973 7.3616e-09 -1.81381e-08 -0.000645823
359 1 0.312485 0.812572 0.187515 0.00122126 0.000118578 -0.00122126
360 1 0.25 0.75 0.25 -3.51822e-09 -6.11719e-08 -3.51823e-09
361 1 0.312554 0.812455 0.312554 -0.000874921 0.008463 -0.000874921
362 1 0.25 0.75 0.375027 -1.19241e-08 -2.22468e-08 0.000645821
363 1 0.312516 0.812459 0.43758 -0.000507783 -0.00208576 0.00139265
364 1 0.25 0.75 0.500091 5.80859e-10 -3.25497e-10 5.24958e-05
365 1 0.312536 0.812346 0.562697 -0.000300986 -8.34228e-05 0.000474158
366 1 0.25 0.75 0.625132 3.02201e-09 5.20432e-09 0.000429108
367 1 0.312535 0.81241 0.68759 0.000194186 -0.000141308 0.000141306
368 1 0.25 0.75 0.75 6.14735e-10 -1.13138e-09 -1.13129e-09
369 1 0.312562 0.812422 0.812422 -0.000119805 0.000101959 0.000101959
370 1 0.25 0.75 0.874868 3.43274e-10 2.90511e-09 -0.000429107
371 1 0.312577 0.81238 0.937334 -0.000816426 -0.00144111 -0.00105743
372 1 0.250039 0.874695 0.999674 -0.00258605 -0.00326673 -0.00189701
373 1 0.313041 0.936811 0.061623 0.00396611 0.0473105 0.060282
374 1 0.250105 0.875124 0.124785 0.0128913 -0.0560354 -0.0195311
375 1 0.312454 0.937649 0.187546 0.00894754 0.00513451 -0.00894756
376 1 0.25 0.875158 0.25 2.19632e-08 -0.0744415 2.19632e-08
377 1 0.312898 0.936142 0.312898 0.00198278 0.128804 0.00198278
378 1 0.249895 0.875124 0.375215 -0.0128913 -0.0560354 0.0195311
379 1 0.312556 0.937078 0.438205 0.00767086 -0.0208899 -0.0080131
380 1 0.249961 0.874695 0.500326 0.00258605 -0.00326671 0.001897
381 1 0.312507 0.937087 0.562913 -0.00231301 -0.00314541 0.00314538
382 1 0.24994 0.874802 0.625198 0.000395807 0.000510821 -0.000510819
383 1 0.312536 0.937303 0.687654 -0.000300989 -0.000474151 8.34146e-05
384 1 0.25 0.874868 0.75 3.4336e-10 -0.000429107 2.90511e-09
385 1 0.312577 0.937334 0.81238 -0.000816426 -0.00105743 -0.00144111
386 1 0.25006 0.874802 0.874802 -0.000395811 0.000510827 0.000510827
387 1 0.312625 0.937255 0.937255 0.00204717 -0.00317817 -0.00317817
388 1 0.375371 0.999694 0.999694 0.00732074 -0.0235752 -0.0235752
389 1 0.43828 0.0617202 0.0617202 -0.106078 0.106078 0.106078
390 1 0.373959 0.000853782 0.126041 0.0450615 -0.0535894 -0.0450615
391 1 0.438511 0.0614888 0.186222 -0.0175837 0.0175835 -2.71106e-05
392 1 0.376329 0.9989 0.248842 -0.0265921 0.00901754 0.0113078
393 1 0.438312 0.0616883 0.314784 0.0849336 -0.0849332 0.00303667
394 1 0.376612 0.998001 0.376612 -0.00880484 0.0585547 -0.00880484
395 1 0.436576 0.0634237 0.436576 0.092073 -0.0920733 0.092073
396 1 0.375796 0.99883 0.50117 0.00422193 0.0802384 -0.0802386
397 1 0.438266 0.0617337 0.563195 -0.00150015 0.00150019 0.0202551
398 1 0.375185 0.999631 0.625363 -0.000830852 -0.000710643 1.22042e-05
399 1 0.437671 0.0623286 0.687688 0.000262904 -0.000262901 0.00110454
400 1 0.375069 0.999889 0.750006 0.000967548 0.000103101 0.00101888
401 1 0.437504 0.062496 0.812509 0.000690133 -0.000690138 -0.00491319
402 1 0.375303 0.999679 0.874671 0.000425476 0.00685533 0.00794181
403 1 0.43728 0.0627205 0.937634 0.00144852 -0.00144852 -0.000645109
404 1 0.373959 0.126041 0.000853782 0.0450615 -0.0450615 -0.0535894
405 1 0.438511 0.186222 0.0614888 -0.0175837 -2.71106e-05 0.0175835
406 1 0.375335 0.124665 0.124665 -0.0184275 0.0184276 0.0184276
407 1 0.432665 0.191586 0.191586 0.302123 -0.144872 -0.144872
408 1 0.381254 0.118746 0.250222 -0.0297852 0.0297842 -0.0313702
409 1 0.44724 0.185103 0.314897 -0.0349742 -0.069911 0.0699111
410 1 0.369664 0.130336 0.369664 0.274699 -0.2747 0.274699
411 1 0.438312 0.185216 0.438312 0.0849333 -0.00303655 0.0849333
412 1 0.376612 0.123388 0.501999 -0.00880673 0.00880667 -0.0585558
413 1 0.438205 0.187444 0.562922 -0.00801325 -0.00767076 0.0208898
414 1 0.375331 0.124669 0.625174 0.0140873 -0.0140873 0.031587
415 1 0.43758 0.187484 0.687541 0.00139262 0.000507777 0.00208576
416 1 0.375033 0.124967 0.750025 -0.000238391 0.000238388 -5.76777e-07
417 1 0.437581 0.187426 0.812425 -0.00149799 0.000178245 0.00217076
418 1 0.374945 0.125055 0.875135 0.00653398 -0.00653399 -0.0285573
419 1 0.438377 0.186959 0.936811 -0.0602819 -0.00396611 0.0473105
420 1 0.376329 0.248842 0.9989 -0.0265921 0.0113078 0.00901754
421 1 0.438312 0.314784 0.0616883 0.0849336 0.00303667 -0.0849332
422 1 0.381254 0.250222 0.118746 -0.0297852 -0.0313702 0.0297842
423 1 0.44724 0.314897 0.185103 -0.0349742 0.0699111 -0.069911
424 1 0.432665 0.308414 0.308414 0.302123 0.144872 0.144872
425 1 0.381254 0.249778 0.381254 -0.0297841 0.0313707 -0.0297841
426 1 0.438511 0.313778 0.438511 -0.0175838 2.70254e-05 -0.0175838
427 1 0.376329 0.251158 0.5011 -0.0265928 -0.0113089 -0.00901787
428 1 0.438377 0.313041 0.563189 -0.0602818 0.00396622 -0.0473103
429 1 0.375215 0.250105 0.624876 0.0195313 0.0128914 0.0560356
430 1 0.437581 0.312574 0.687575 -0.00149801 -0.000178287 -0.00217081
431 1 0.375027 0.25 0.75 0.000645821 -1.19241e-08 -2.22468e-08
432 1 0.43758 0.312516 0.812459 0.00139265 -0.000507783 -0.00208576
433 1 0.375215 0.249895 0.875124 0.0195311 -0.0128913 -0.0560354
434 1 0.438205 0.312556 0.937078 -0.0080131 0.00767086 -0.0208899
435 1 0.376612 0.376612 0.998001 -0.00880484 -0.00880484 0.0585547
436 1 0.436576 0.436576 0.0634237 0.092073 0.092073 -0.0920733
437 1 0.369664 0.369664 0.130336 0.274699 0.274699 -0.2747
438 1 0.438312 0.438312 0.185216 0.0849333 0.0849333 -0.00303655
439 1 0.381254 0.381254 0.249778 -0.0297841 -0.0297841 0.0313707
440 1 0.438511 0.438511 0.313778 -0.0175838 -0.0175838 2.70254e-05
441 1 0.375335 0.375335 0.375335 -0.0184274 -0.0184274 -0.0184274
442 1 0.43828 0.43828 0.43828 -0.106077 -0.106077 -0.106077
443 1 0.373959 0.373959 0.499146 0.0450615 0.0450615 0.0535894
444 1 0.43728 0.43728 0.562366 0.00144854 0.00144854 0.000645081
445 1 0.374945 0.374945 0.624865 0.00653399 0.00653399 0.0285573
446 1 0.437504 0.437504 0.687491 0.000690141 0.000690141 0.00491321
447 1 0.375033 0.375033 0.749975 -0.000238383 -0.000238383 5.64742e-07
448 1 0.437671 0.437671 0.812312 0.000262933 0.000262933 -0.00110458
449 1 0.375331 0.375331 0.874826 0.0140872 0.0140872 -0.0315868
450 1 0.438266 0.438266 0.936805 -0.00150046 -0.00150046 -0.0202547
451 1 0.375796 0.50117 0.99883 0.00422193 -0.0802386 0.0802384