ITEM: TIMESTEP
0
ITEM: NUMBER OF ATOMS
1026
ITEM: BOX BOUNDS pp pp pp
0.0000000000000000e+00 2.2857118000000000e+01
0.0000000000000000e+00 2.2857118000000000e+01
0.0000000000000000e+00 2.2857118000000000e+01
ITEM: ATOMS id type xs ys zs fx fy fz
1 1 0.23963 0.233393 0.125263 0.286704 -0.10947 -0.0326517
2 1 0.290802 0.309602 0.161399 0.0123396 0.26839 0.164132
3 1 0.222364 0.137079 0.213451 0.178021 0.0698546 0.139811
4 1 0.161396 0.209196 0.190399 0.164131 -0.0123293 -0.268392
5 1 0.36292 0.28655 0.222367 -0.0698687 -0.139803 0.178019
6 1 0.266605 0.374738 0.239633 0.109487 0.0326411 0.286685
7 1 0.287011 0.140996 0.285809 -0.140644 0.133666 -0.0556836
8 1 0.359002 0.214192 0.287014 -0.133664 0.0556814 -0.140646
9 1 0.12526 0.260368 0.266608 -0.0326414 -0.286693 0.109485
10 1 0.190396 0.338602 0.290805 -0.268394 -0.164133 0.0123356
11 1 0.285807 0.212987 0.359005 -0.0556798 0.140641 -0.133667
12 1 0.213449 0.277634 0.362923 0.139803 -0.178026 -0.0698487
13 1 0.999624 0.999849 0.999793 -0.0074392 -0.00651377 -0.00699661
14 1 0.0622839 0.0626066 0.0624718 0.00553253 0.0237631 -0.00143252
15 1 0.999776 0.99964 0.124828 -0.000840803 0.00204782 -0.00880763
16 1 0.0626052 0.0623748 0.186698 -0.0892487 -0.103637 -0.0112942
17 1 3.46285e-05 0.999967 0.249994 -0.0190816 -0.00355138 0.00349019
18 1 0.0620522 0.062246 0.313387 0.0300935 0.00338662 0.00418938
19 1 0.999885 0.999794 0.375257 -0.0219965 -0.00343116 0.00537514
20 1 0.0620083 0.0620225 0.438155 0.0817895 0.023007 -0.0541109
21 1 0.999761 0.999644 0.500322 0.0101437 0.00129468 -0.00435594
22 1 0.0625574 0.0625042 0.562593 -0.00395223 -0.00286728 0.00457831
23 1 0.999929 0.99988 0.62507 -0.00125399 -0.00103094 0.00253277
24 1 0.0624121 0.062395 0.687567 -0.00032269 -0.00054688 0.00320952
25 1 0.999825 0.99983 0.749891 -0.000397443 -0.000829285 0.00145505
26 1 0.0622688 0.0622823 0.812276 -0.000546593 -0.000980135 -0.000743319
27 1 0.999519 0.999572 0.8745 0.00322691 0.00160238 0.000148097
28 1 0.0616498 0.0616411 0.936591 0.00786183 0.00562792 -0.00688705
29 1 0.99877 0.124086 0.99871 0.0341665 0.00254663 0.0358381
30 1 0.0604199 0.185395 0.0603546 0.0649406 0.0487908 0.00964503
31 1 0.000216614 0.125098 0.125172 -0.0463686 -0.0246452 -0.00945734
32 1 0.0595413 0.189637 0.188521 -0.0310571 -0.139266 -0.11287
33 1 0.999004 0.124129 0.250091 0.0590283 0.0688597 0.0106232
34 1 0.0610583 0.186822 0.313335 -0.0480172 0.0838526 0.0281854
35 1 0.999424 0.124575 0.375546 -0.0196175 -0.00198599 0.00787431
36 1 0.0614555 0.186441 0.438464 -0.00499102 0.00795882 0.027246
37 1 0.999521 0.124521 0.500612 -0.0105719 0.00219271 -0.00361431
38 1 0.0615924 0.186872 0.563382 0.0464121 -0.000777081 -0.0412187
39 1 0.999602 0.124635 0.625434 0.00516526 -0.000225487 -0.00579374
40 1 0.0623685 0.18741 0.687635 0.00154554 -0.00107751 -0.00251719
41 1 0.999833 0.124911 0.749997 3.59341e-05 -0.00187483 -0.000401505
42 1 0.0623672 0.187493 0.81243 -0.00113669 -0.00112514 -0.00494608
43 1 0.999567 0.124796 0.874549 0.000365629 -0.00131354 -0.00122692
44 1 0.0617793 0.187402 0.93693 -0.00168112 -0.0177706 -0.0363093
45 1 0.998797 0.249961 0.998505 0.0387677 -0.00220394 0.0573173
46 1 0.0596917 0.314986 0.0593921 0.0391988 -0.0184067 -0.052984
47 1 0.999251 0.250141 0.123101 0.00417861 0.0181741 0.0494193
48 1 0.0636823 0.309529 0.186334 0.046252 0.040696 0.0426837
49 1 0.000185765 0.250837 0.251154 -0.0974996 0.0160671 -0.0159321
50 1 0.0570761 0.316574 0.31479 0.206682 -0.00590289 0.0583407
51 1 0.998437 0.250177 0.376631 0.0664225 -0.000854361 -0.0435237
52 1 0.0612462 0.314178 0.439531 -0.0453523 -0.00663466 -0.00417103
53 1 0.999371 0.249932 0.500797 0.00315224 4.59517e-05 -0.0140756
54 1 0.0616472 0.312565 0.563413 0.025912 0.00481474 -0.0308208
55 1 0.999552 0.249919 0.625448 -0.00305442 0.00171645 0.00361826
56 1 0.0623809 0.31254 0.687595 -0.00178398 -0.000941625 0.00081535
57 1 0.999841 0.250021 0.749991 -0.000333356 -0.000848839 0.000447539
58 1 0.0623418 0.312644 0.812367 0.000995735 0.000871751 -0.000859648
59 1 0.999558 0.25006 0.874524 -0.00235213 -0.00327925 -0.000643398
60 1 0.0615358 0.313177 0.936591 0.016538 0.0103479 -0.00167186
61 1 0.998557 0.376175 0.998497 -0.00470307 -0.00617111 0.00245839
62 1 0.0608089 0.439189 0.0608117 0.0185693 -0.0185703 0.0185682
63 1 0.999128 0.375095 0.12442 0.0366161 0.0157297 0.0399496
64 1 0.0593894 0.440307 0.185015 -0.0529833 -0.039197 0.0184067
65 1 0.997874 0.3761 0.248758 0.131076 0.0312756 0.0149821
66 1 0.0603518 0.439578 0.314606 0.00964593 -0.0649418 -0.0487905
67 1 0.998101 0.376545 0.376711 0.0259353 -0.0145842 -0.00943299
68 1 0.062469 0.437715 0.437394 -0.00143057 -0.00553352 -0.0237643
69 1 0.999044 0.375936 0.501123 0.0140388 0.00351641 -0.0156883
70 1 0.0615721 0.438571 0.563541 0.010767 -0.00678057 -0.000760418
71 1 0.999536 0.375287 0.62546 -0.00228637 -3.24199e-05 0.00366646
72 1 0.0623229 0.43774 0.687683 -0.00178018 0.00219291 0.00230903
73 1 0.999811 0.375148 0.749955 -0.000744018 0.000742774 0.00135141
74 1 0.0623779 0.437678 0.812339 -0.000830422 0.00136296 -0.0028485
75 1 0.999459 0.375413 0.87443 -0.00106401 0.00189507 -0.00264297
76 1 0.0620409 0.438004 0.936809 -0.00524817 0.00540256 -0.00673566
77 1 0.998999 0.500999 0.999002 0.0024801 -0.00248028 0.00247995
78 1 0.0619946 0.563192 0.0620436 -0.00540242 0.00673562 -0.00524815
79 1 0.998494 0.501441 0.123826 0.00245894 0.00470253 0.00617153
80 1 0.061663 0.563069 0.18725 -0.0120887 0.0228265 -0.0155747
81 1 0.998502 0.501202 0.25004 0.0573172 -0.0387676 0.00220378
82 1 0.062044 0.562735 0.312819 -0.0187218 0.0310192 0.0127474
83 1 0.998707 0.501229 0.375915 0.0358364 -0.0341648 -0.00254668
84 1 0.0625542 0.56257 0.437588 -0.000616282 0.0121037 -0.00204859
85 1 0.99979 0.500374 0.500152 -0.00699634 0.00743919 0.00651357
86 1 0.0623745 0.562729 0.56269 -0.00355075 0.00101387 0.00140053
87 1 0.999565 0.500556 0.625474 0.00299777 -0.00126559 -0.00131427
88 1 0.0623915 0.562753 0.687611 0.000656605 0.000423804 0.000350653
89 1 0.999812 0.500241 0.74998 -0.00119226 0.00134038 -0.000425352
90 1 0.0623034 0.562789 0.812235 -0.00114021 0.00097838 -0.000651345
91 1 0.999615 0.50039 0.874541 -0.00180603 0.00154994 -0.00451693
92 1 0.0618632 0.563291 0.936694 0.0040965 -0.00221716 0.00104172
93 1 0.999608 0.62546 0.999618 -0.00154987 0.00451691 -0.00180596
94 1 0.0623201 0.687662 0.0623806 -0.00136294 0.00284848 -0.000830476
95 1 0.999565 0.625441 0.124755 -0.00295912 0.00486956 -0.00376004
96 1 0.0623537 0.687602 0.187479 -0.000147674 -8.41013e-05 -0.000178633
97 1 0.999671 0.625293 0.250077 -0.00232669 0.00332025 0.000461091
98 1 0.0624663 0.687518 0.31254 0.000148409 0.000853787 0.00152432
99 1 0.999793 0.625244 0.375208 0.0014089 -0.000928777 0.00206239
100 1 0.0625904 0.687489 0.437447 -0.000186504 0.00129807 0.00038816
101 1 0.999996 0.625145 0.500062 0.000219888 0.00139746 0.000942549
102 1 0.0624649 0.687532 0.562534 -0.000571736 -0.000440249 -0.000811936
103 1 0.999886 0.625164 0.625062 -0.000861855 -0.000241218 -0.000168617
104 1 0.0624102 0.687551 0.687449 0.000332823 -0.000137023 -0.000160934
105 1 0.999817 0.62522 0.749895 0.000210173 0.000301008 5.40559e-05
106 1 0.062307 0.687685 0.812242 0.000951156 7.55675e-05 -0.000346665
107 1 0.999618 0.625421 0.874555 0.00123203 -0.000328069 -0.000111679
108 1 0.0622048 0.687798 0.937144 -0.000165691 -0.000274725 -0.000267633
109 1 0.999757 0.750021 0.999815 -0.00134034 0.000425367 -0.00119222
110 1 0.0622587 0.812318 0.0623257 -0.00219279 -0.00230885 -0.00178005
111 1 0.999845 0.750042 0.124967 -0.000592692 -0.000777176 -0.000439967
112 1 0.0624489 0.812434 0.187547 -0.00199639 -0.000795916 0.00102718
113 1 0.999928 0.750005 0.250054 -0.000432678 0.000365071 0.000172525
114 1 0.0625079 0.81242 0.31257 0.00282805 0.00320237 0.000691802
115 1 0.999984 0.749975 0.375059 0.00104313 0.000506004 0.00165447
116 1 0.0626199 0.812475 0.437389 -0.000800735 -0.00457784 0.00103759
117 1 6.06859e-05 0.749993 0.499947 -0.000525224 -0.00137384 0.000788806
118 1 0.0623712 0.81231 0.562568 8.65349e-05 0.00172328 -0.00181268
119 1 0.999905 0.749959 0.624986 0.000168723 0.000185531 -0.000589242
120 1 0.0623621 0.812369 0.687454 0.000312323 -0.000175714 4.23453e-05
121 1 0.999819 0.750019 0.749841 0.000814978 1.25347e-05 -0.000344525
122 1 0.0622919 0.812389 0.812293 0.00109253 -0.000263099 -0.00033625
123 1 0.999719 0.75006 0.874715 0.000682532 -0.000421064 -0.000292592
124 1 0.0622196 0.812322 0.937194 0.000773765 -0.00142023 -0.00130937
125 1 0.999443 0.874527 0.999567 0.00126546 0.00131403 0.00299766
126 1 0.0614272 0.93646 0.0615749 0.00678017 0.000759626 0.0107667
127 1 0.999631 0.874645 0.124929 -0.000894904 -0.00168679 0.000134006
128 1 0.0618166 0.936762 0.187634 0.0353693 0.0399138 -0.000997634
129 1 0.999715 0.874707 0.250139 -0.00378237 -0.00486749 -0.00269122
130 1 0.0618025 0.936827 0.313028 0.0571479 0.0605999 -0.00403467
131 1 0.99977 0.8747 0.375252 0.00544429 0.00751695 0.000658541
132 1 0.0627652 0.937618 0.437207 -0.000422885 -0.00127181 0.00184872
133 1 7.24272e-05 0.874954 0.499911 -0.00141725 -0.00201834 0.00107632
134 1 0.0622914 0.937204 0.562691 -0.00152311 -0.00210061 0.0033448
135 1 0.999881 0.874833 0.625018 -0.000396693 -0.00088874 0.00107406
136 1 0.0622677 0.937226 0.687594 0.000705164 0.00104108 -0.00162779
137 1 0.999774 0.874802 0.749874 0.000755456 0.000164572 -0.000223837
138 1 0.0622269 0.937179 0.81224 0.000781947 -0.000272708 -6.1801e-05
139 1 0.99961 0.874724 0.874673 0.000637384 0.00154292 0.0015197
140 1 0.061891 0.936922 0.93694 -2.40832e-06 0.00384404 0.00321652
141 1 0.124063 0.998878 0.999047 -0.00351632 0.0156897 0.0140408
142 1 0.185821 0.0604699 0.061249 0.00663493 0.00417423 -0.0453506
143 1 0.122789 0.997626 0.122954 0.00805888 -0.0569737 0.0156487
144 1 0.184128 0.0515135 0.184391 -0.0568149 -0.0494802 -0.0849867
145 1 0.123709 0.999359 0.251309 0.0467295 -0.0529087 0.00208031
146 1 0.19187 0.0662005 0.308362 -0.224313 -0.166448 0.123042
147 1 0.125979 0.000884437 0.373875 -0.0263951 -0.0478193 0.0447571
148 1 0.18619 0.0609241 0.438974 0.000934601 -0.0263361 -0.025493
149 1 0.124482 0.999425 0.500479 -0.00714669 -0.0114941 0.0152206
150 1 0.186873 0.0614439 0.563302 -0.00243574 0.0320501 -0.0189683
151 1 0.12464 0.999535 0.625403 0.000435952 0.00552253 -0.00605417
152 1 0.18738 0.0622691 0.687642 -0.000776749 0.000941011 -0.000824521
153 1 0.124845 0.999765 0.749978 -0.00052663 -0.000360089 -0.000170299
154 1 0.187369 0.0622574 0.812399 0.00063548 -0.00160726 -0.00304768
155 1 0.124673 0.999458 0.874529 0.00182459 0.000536056 0.00139412
156 1 0.187149 0.0615044 0.936842 -0.00629843 -0.00429809 -0.0225644
157 1 0.123453 0.12329 0.998104 0.0145839 0.00943311 0.0259352
158 1 0.183424 0.185211 0.0570787 0.00589964 -0.0583402 0.206693
159 1 0.127342 0.125708 0.12705 -0.122667 0.00149788 -0.0277549
160 1 0.120794 0.123689 0.249924 0.114268 0.315137 -0.0670086
161 1 0.186202 0.18359 0.311267 0.172015 0.0294352 0.0298299
162 1 0.125322 0.124842 0.375957 -0.0103441 -0.0979093 -0.0602098
163 1 0.190635 0.189325 0.434122 -0.158741 0.0535566 0.157548
164 1 0.125579 0.125561 0.49971 -0.00837378 -0.000887819 0.0185276
165 1 0.187535 0.187317 0.562501 -0.0108184 -0.00435832 -0.00188912
166 1 0.124983 0.124901 0.625059 -0.00451505 -0.00339645 0.0206368
167 1 0.187493 0.187433 0.687472 -0.00128685 -0.000895674 -0.000703825
168 1 0.124918 0.124913 0.749987 0.00037669 0.000503578 0.000623199
169 1 0.187372 0.1874 0.812487 -1.02124e-06 0.00109117 0.00105972
170 1 0.124652 0.124684 0.874751 -0.00954224 -0.00992395 -0.019981
171 1 0.186938 0.187042 0.936896 -0.00122336 -0.00605131 -0.00591204
172 1 0.123898 0.251243 0.997877 -0.0312766 -0.0149831 0.131078
173 1 0.190469 0.313667 0.0636851 -0.0406956 -0.0426803 0.0462512
174 1 0.119301 0.252647 0.113016 0.0334504 0.117682 -0.0582545
175 1 0.183191 0.316807 0.183194 0.0957859 -0.0957907 0.0958011
176 1 0.118129 0.250733 0.378082 -0.0216604 0.035235 -0.210151
177 1 0.184388 0.315871 0.448488 -0.0849864 0.0568129 0.0494861
178 1 0.123375 0.248591 0.501118 0.0644437 0.0281434 0.00556452
179 1 0.187161 0.31276 0.563938 -0.00988146 0.00384345 -0.188285
180 1 0.124775 0.249827 0.624936 -0.01746 -0.0154313 0.0568448
181 1 0.187442 0.312503 0.687554 0.00171771 -0.00178135 -0.008593
182 1 0.124944 0.250004 0.749995 0.000141699 -0.000760069 0.000967621
183 1 0.187482 0.312525 0.812585 0.00107992 0.00181898 -0.00481172
184 1 0.124814 0.25019 0.874927 -0.00715307 0.0056749 -0.016058
185 1 0.187695 0.312786 0.937819 0.0162853 0.0159149 -0.059732
186 1 0.124903 0.375581 0.999131 -0.0157297 -0.0399495 0.0366179
187 1 0.185013 0.440609 0.0596944 0.018407 0.0529839 0.0391953
188 1 0.122354 0.377644 0.122357 0.0609448 -0.0609476 0.0609489
189 1 0.186331 0.436316 0.190472 0.042684 -0.0462467 -0.0406962
190 1 0.113013 0.380698 0.247354 -0.058248 -0.033454 -0.117677
191 1 0.188518 0.440457 0.310364 -0.112873 0.0310564 0.139265
192 1 0.127047 0.372656 0.374294 -0.027749 0.122655 -0.0015107
193 1 0.186696 0.437393 0.437626 -0.011294 0.0892481 0.103637
194 1 0.122951 0.377209 0.502376 0.0156486 -0.00805894 0.0569755
195 1 0.187631 0.438182 0.563239 -0.000997861 -0.0353704 -0.0399151
196 1 0.124685 0.375331 0.625231 -0.0139552 0.0161072 0.0325792
197 1 0.187544 0.437549 0.687567 0.00102722 0.00199645 0.000796005
198 1 0.124957 0.375076 0.750007 0.000118415 0.000249599 -0.00018669
199 1 0.187477 0.437645 0.812399 -0.000178604 0.000147615 8.42522e-05
200 1 0.124975 0.375182 0.874892 -0.0014226 0.000871371 -0.0118182
201 1 0.187247 0.438335 0.936933 -0.0155745 0.0120883 -0.0228256
202 1 0.123823 0.501504 0.99856 0.00617145 -0.00245843 -0.00470247
203 1 0.186822 0.56341 0.0615386 -0.0103476 0.00167347 0.0165357
204 1 0.124418 0.50087 0.124906 0.0399505 -0.0366181 -0.0157281
205 1 0.187212 0.562182 0.187697 -0.0159145 0.0597325 0.0162851
206 1 0.123099 0.500747 0.249861 0.0494209 -0.00418314 -0.0181747
207 1 0.187639 0.562367 0.312082 -0.0092013 0.0134119 -0.000195675
208 1 0.125169 0.499782 0.374903 -0.00945767 0.0463709 0.0246458
209 1 0.187295 0.562576 0.437683 -0.00239259 0.0131703 0.00558639
210 1 0.124825 0.500223 0.500362 -0.00880808 0.000842811 -0.00204585
211 1 0.187534 0.562606 0.562618 0.00121004 0.000431496 -0.000364102
212 1 0.124926 0.500367 0.625356 0.000133989 0.000894822 0.00168674
213 1 0.187526 0.562657 0.687602 2.66823e-06 0.000908422 -2.22519e-05
214 1 0.124964 0.500153 0.749959 -0.000439987 0.000592716 0.000777251
215 1 0.187474 0.562714 0.812304 -0.000235534 0.00120911 -0.0015483
216 1 0.124752 0.500433 0.87456 -0.00376011 0.00295915 -0.00486954
217 1 0.187262 0.56325 0.936765 0.000951825 0.000434608 -0.000749838
218 1 0.124585 0.625571 0.999462 -0.00189503 0.00264316 -0.00106416
219 1 0.187355 0.687634 0.0623446 -0.000871756 0.000859887 0.000995579
220 1 0.124817 0.625109 0.124978 -0.000871285 0.0118173 -0.00142247
221 1 0.187473 0.687416 0.187485 -0.00181897 0.00481188 0.00107994
222 1 0.124765 0.625001 0.249974 0.00361321 0.00195138 -0.00155331
223 1 0.187584 0.687395 0.312375 1.96799e-06 0.000973392 -0.000240994
224 1 0.125082 0.624875 0.374884 -1.94101e-05 0.00747639 0.00124927
225 1 0.187517 0.687444 0.437457 -0.000470265 -5.2484e-05 -0.000870804
226 1 0.124959 0.625088 0.500102 0.00108772 -0.00253342 -0.00238085
227 1 0.187498 0.687476 0.562533 0.000519805 -0.000481767 -0.000302514
228 1 0.124983 0.625081 0.62505 -0.000166477 0.000167636 1.64431e-05
229 1 0.187479 0.687501 0.687477 0.000146811 -7.88228e-05 -0.000346267
230 1 0.124937 0.625158 0.749914 -1.14032e-05 0.000652186 -0.000389188
231 1 0.187442 0.687643 0.812282 0.000591177 5.0196e-05 -0.000413961
232 1 0.124783 0.625408 0.874565 0.00152906 -6.94396e-05 -0.000563303
233 1 0.187383 0.687745 0.937188 0.00075138 0.00119322 -0.00121378
234 1 0.124851 0.750046 0.999814 -0.000742732 -0.00135136 -0.000744044
235 1 0.187458 0.812406 0.0623836 0.00094158 -0.000815301 -0.00178389
236 1 0.124923 0.749994 0.12496 -0.0002496 0.000186683 0.000118434
237 1 0.187495 0.812447 0.187445 0.00178132 0.00859312 0.00171772
238 1 0.125025 0.750006 0.250003 0.000361112 -0.00143227 0.000806412
239 1 0.187655 0.812572 0.312417 -0.00129935 0.000527199 0.000490353
240 1 0.125122 0.749967 0.374905 -8.84068e-05 -0.000354338 -3.5028e-05
241 1 0.187483 0.812381 0.437532 -0.000957887 0.000679039 -0.00225525
242 1 0.124993 0.749913 0.499998 -0.00113248 2.07112e-05 -0.00130886
243 1 0.187416 0.812266 0.562632 0.00105383 -0.00138433 0.00078701
244 1 0.124934 0.749909 0.625015 0.000593644 -0.000662464 0.000304578
245 1 0.187417 0.812325 0.687519 0.000345974 -0.000257323 -0.000293357
246 1 0.124894 0.749981 0.749874 0.000613765 2.08415e-05 -0.000343182
247 1 0.187419 0.812376 0.812336 0.000642674 -0.000337949 -0.000310069
248 1 0.124844 0.75004 0.874738 0.000651183 -0.000158458 -0.000795499
249 1 0.18741 0.81232 0.937227 0.000589101 -0.000467803 -0.00114783
250 1 0.124711 0.874541 0.999539 3.23363e-05 -0.00366659 -0.00228645
251 1 0.187434 0.936588 0.06165 -0.00481494 0.0308194 0.0259111
252 1 0.124667 0.87477 0.124688 -0.0161071 -0.0325796 -0.0139551
253 1 0.187239 0.936064 0.187163 -0.00384324 0.188284 -0.00988118
254 1 0.124926 0.875151 0.250149 -0.0167251 -0.0565506 0.0169005
255 1 0.187882 0.937809 0.312259 -0.0153556 -0.00906289 -0.00132027
256 1 0.125226 0.875165 0.37485 -0.00564349 -0.025795 0.00523636
257 1 0.186984 0.936805 0.43834 -0.00978059 0.0293074 -0.0482228
258 1 0.124728 0.87461 0.500273 -0.00108237 0.00743905 -0.00746756
259 1 0.187336 0.937081 0.562841 -0.00335923 -0.00550105 0.00509079
260 1 0.124849 0.874744 0.625122 -0.000232123 -0.000866662 0.000454606
261 1 0.187369 0.937187 0.68766 0.00112031 -0.000978032 0.000790632
262 1 0.124852 0.874777 0.749929 0.000855945 -0.000717306 0.000268386
263 1 0.187417 0.937201 0.812313 9.32143e-05 -0.000666951 0.000191686
264 1 0.124794 0.874719 0.874707 0.00127567 -0.000528719 -0.000663757
265 1 0.187355 0.936991 0.937042 0.00203062 -0.00067959 -0.00161977
266 1 0.250067 0.999204 0.999374 -4.61205e-05 0.0140767 0.00315335
267 1 0.313557 0.0615366 0.0614582 -0.00795967 -0.0272452 -0.00498934
268 1 0.251408 0.998883 0.123378 -0.0281424 -0.00556489 0.0644426
269 1 0.310673 0.0658795 0.190637 -0.0535519 -0.15755 -0.158741
270 1 0.250594 4.70166e-05 0.249622 -0.0301462 -0.137569 -0.0357467
271 1 0.31625 0.0515301 0.315623 0.0301255 0.0159875 0.0468286
272 1 0.249116 0.998416 0.37657 0.0198658 0.0290892 -0.0334601
273 1 0.315122 0.0609814 0.43885 -0.00319452 -0.0779312 0.0806821
274 1 0.250214 0.999171 0.500726 -0.00426701 0.0238466 -0.0178576
275 1 0.312719 0.0613158 0.563387 0.00815156 0.020302 0.00673871
276 1 0.249918 0.999449 0.625467 0.00172434 -0.0011086 0.00149189
277 1 0.312554 0.0622582 0.687653 -0.000840707 -0.00256719 0.00277348
278 1 0.249973 0.999776 0.75002 0.000281469 -0.000462493 0.00028625
279 1 0.31254 0.0622956 0.812417 0.000451953 3.4093e-05 -0.000614711
280 1 0.250036 0.999561 0.874658 -0.00111283 0.00132938 0.00202413
281 1 0.312819 0.0618253 0.937037 0.000943566 -0.00378078 -0.0208017
282 1 0.249821 0.12337 0.998439 0.000854035 0.0435233 0.0664227
283 1 0.313176 0.186666 0.0610611 -0.0838528 -0.0281817 -0.0480157
284 1 0.249265 0.121919 0.118132 -0.0352283 0.210142 -0.0216676
285 1 0.316408 0.188734 0.186204 -0.0294448 -0.0298223 0.172022
286 1 0.25028 0.117176 0.381441 -0.0353897 0.0669586 -0.0178587
287 1 0.315621 0.183748 0.448471 0.0468276 -0.0301257 -0.0159854
288 1 0.248975 0.12282 0.501639 0.0217203 0.051669 -0.0167778
289 1 0.312828 0.186932 0.564054 0.000639299 -0.00785091 -0.163099
290 1 0.249907 0.124553 0.625047 -0.016194 -0.0166737 0.048768
291 1 0.312528 0.187341 0.687606 -0.0015493 0.0017353 -0.00953623
292 1 0.249948 0.124857 0.750006 -0.000648634 -0.000257949 0.00160793
293 1 0.312416 0.187409 0.812564 0.000997511 -7.60436e-06 -0.00131843
294 1 0.249905 0.124639 0.874857 0.00427614 -0.00253971 -0.00698072
295 1 0.312423 0.187221 0.937435 0.00448695 0.000418196 -0.0198315
296 1 0.249161 0.248847 0.000188513 -0.0160674 0.0159329 -0.097497
297 1 0.310361 0.31148 0.0595442 0.139266 0.11287 -0.0310587
298 1 0.25026 0.249739 0.250263 -0.0819308 0.0819376 -0.0819419
299 1 0.311264 0.313797 0.316411 0.0298228 -0.172017 -0.0294429
300 1 0.30836 0.308128 0.433801 0.12304 0.224314 0.166444
301 1 0.249619 0.249404 0.499954 -0.0357497 0.030148 0.137561
302 1 0.312257 0.312117 0.562192 -0.00132037 0.0153555 0.00906348
303 1 0.249957 0.249839 0.624762 -0.000947807 0.00116944 0.0815714
304 1 0.312415 0.312344 0.687429 0.000490374 0.00129933 -0.000527089
305 1 0.249932 0.249921 0.750017 -5.16968e-05 0.000201389 0.000386171
306 1 0.312372 0.312414 0.812606 -0.000241013 -1.9961e-06 -0.000973382
307 1 0.249806 0.249868 0.875174 -9.0591e-05 0.00172079 -0.0166785
308 1 0.31208 0.31236 0.937635 -0.000195814 0.00920156 -0.0134121
309 1 0.249858 0.3769 0.999254 -0.0181748 -0.0494188 0.00417882
310 1 0.314603 0.439646 0.0604227 -0.0487899 -0.00964444 0.0649385
311 1 0.247351 0.386985 0.119303 -0.117682 0.0582536 0.0334475
312 1 0.314787 0.442922 0.183427 0.0583419 -0.206691 0.0059006
313 1 0.313333 0.43894 0.313179 0.0281741 0.0480089 -0.0838543
314 1 0.249921 0.379204 0.376312 -0.0670081 -0.114268 -0.315136
315 1 0.313384 0.437946 0.437755 0.00418979 -0.0300923 -0.00338633
316 1 0.251306 0.376289 0.500642 0.00207924 -0.0467296 0.0529091
317 1 0.313025 0.438196 0.563175 -0.00403456 -0.0571474 -0.0605991
318 1 0.250146 0.375072 0.62485 0.0169006 0.016725 0.0565505
319 1 0.312568 0.43749 0.687581 0.000691869 -0.00282808 -0.0032023
320 1 0.25 0.374973 0.749995 0.000806429 -0.00036114 0.00143231
321 1 0.312537 0.437532 0.812483 0.00152437 -0.00014845 -0.000853705
322 1 0.249971 0.375234 0.875 -0.00155334 -0.00361331 -0.00195167
323 1 0.312816 0.437954 0.937266 0.0127475 0.0187222 -0.0310198
324 1 0.250037 0.501496 0.998799 0.00220381 -0.0573181 0.0387693
325 1 0.312596 0.563071 0.061782 0.0177704 0.0363105 -0.00168216
326 1 0.248755 0.502124 0.123901 0.0149805 -0.131082 -0.0312756
327 1 0.312957 0.563105 0.186941 0.00605178 0.00591549 -0.00122297
328 1 0.251151 0.499813 0.249164 -0.0159298 0.0974995 -0.0160679
329 1 0.312777 0.562566 0.312425 -0.000418456 0.0198313 0.00448707
330 1 0.250088 0.500994 0.375872 0.0106242 -0.0590271 -0.0688594
331 1 0.312781 0.562794 0.437825 -0.00220339 0.00538664 0.00179285
332 1 0.249992 0.499964 0.500034 0.00349038 0.0190822 0.00355182
333 1 0.312563 0.56257 0.562571 0.00149804 0.00161611 0.000153019
334 1 0.250136 0.500284 0.625294 -0.0026913 0.00378237 0.00486748
335 1 0.3126 0.562606 0.687607 -0.00119439 0.00135747 0.000728108
336 1 0.250052 0.50007 0.749996 0.000172587 0.000432693 -0.000365015
337 1 0.312594 0.562657 0.812345 7.30469e-05 0.00090419 -0.000764526
338 1 0.250074 0.500327 0.874709 0.000461243 0.00232675 -0.00332027
339 1 0.312705 0.563167 0.936837 -0.00129064 0.00366992 -0.00165427
340 1 0.249938 0.625477 0.999561 0.00327922 0.000643294 -0.00235212
341 1 0.312506 0.687571 0.06237 0.00112518 0.00494616 -0.00113673
342 1 0.249808 0.625074 0.124817 -0.00567471 0.0160559 -0.00715252
343 1 0.312598 0.687514 0.187374 -0.00109117 -0.00105943 -9.32796e-07
344 1 0.250131 0.624827 0.249809 -0.00172072 0.016678 -9.07018e-05
345 1 0.31259 0.687437 0.312419 7.55105e-06 0.00131848 0.000997476
346 1 0.250039 0.624958 0.374976 0.000748051 -0.00112158 -0.00190359
347 1 0.312543 0.687487 0.437524 0.000231081 -0.00065827 -0.000233595
348 1 0.249988 0.625014 0.500047 0.000906643 0.00158248 0.000715368
349 1 0.312509 0.687452 0.562567 0.000312866 0.000449787 3.89408e-05
350 1 0.250037 0.625034 0.625056 0.000338535 -0.000752299 -0.000866717
351 1 0.312538 0.687469 0.687513 0.000459987 -0.000196002 -0.000271462
352 1 0.250032 0.625101 0.749945 0.000249301 0.00056701 -0.000432245
353 1 0.31256 0.68761 0.812316 0.000293017 -3.12941e-05 -0.000443015
354 1 0.250001 0.625347 0.874627 0.000670894 4.73185e-05 -0.000464681
355 1 0.312552 0.687715 0.937214 0.00125157 0.000537308 -0.000533588
356 1 0.249977 0.75001 0.999843 0.000848814 -0.000447513 -0.000333378
357 1 0.312589 0.812367 0.0623713 0.00107745 0.0025172 0.00154556
358 1 0.249994 0.750006 0.124947 0.000760022 -0.000967636 0.000141726
359 1 0.312565 0.812529 0.187495 0.000895591 0.000703909 -0.00128682
360 1 0.250077 0.749984 0.249934 -0.000201435 -0.000386137 -5.16866e-05
361 1 0.312657 0.812395 0.312531 -0.0017354 0.00953646 -0.00154924
362 1 0.250054 0.749963 0.374961 -0.000481354 -0.00171884 -0.00037947
363 1 0.31257 0.812356 0.43761 -0.000735269 -0.00318044 0.00212895
364 1 0.249999 0.749892 0.500034 0.00019351 -0.000190312 -0.000293559
365 1 0.312528 0.812204 0.562731 0.000111302 -0.000579739 0.000525359
366 1 0.249981 0.749869 0.625065 0.000260018 -0.000369945 2.15304e-06
367 1 0.312523 0.812295 0.687579 0.000392183 -0.000538388 -0.000236628
368 1 0.249989 0.749953 0.749917 0.000531681 -0.000265304 -0.000338688
369 1 0.312552 0.812367 0.812372 0.000408476 -0.000311917 -1.4987e-06
370 1 0.249988 0.750019 0.874775 0.000632175 -0.000421749 -0.000634391
371 1 0.312598 0.812317 0.937245 -0.000376354 -0.000857976 -0.000711146
372 1 0.25008 0.874553 0.999555 -0.00171642 -0.00361819 -0.00305437
373 1 0.313126 0.936619 0.0615951 0.000777361 0.0412181 0.0464122
374 1 0.250171 0.875065 0.124778 0.0154312 -0.0568446 -0.01746
375 1 0.312681 0.937501 0.187538 0.00435845 0.00188903 -0.0108184
376 1 0.250159 0.875239 0.24996 -0.00116957 -0.0815711 -0.000947799
377 1 0.313066 0.935947 0.312831 0.00785086 0.163099 0.000639485
378 1 0.250006 0.875037 0.375223 -0.016388 -0.0499239 0.0168802
379 1 0.312721 0.936724 0.438462 0.0123583 -0.0156569 -0.0149638
380 1 0.24995 0.874554 0.500384 0.00274853 -0.00302091 0.0023312
381 1 0.31262 0.936834 0.56311 -0.00232818 -0.00406088 0.00355355
382 1 0.249929 0.874662 0.625236 5.7581e-05 -0.000442375 -0.000336881
383 1 0.312547 0.937143 0.687737 -5.64699e-05 -0.00104778 0.00018289
384 1 0.249974 0.874762 0.749984 0.000291836 -0.000457629 2.36517e-05
385 1 0.312582 0.937224 0.812359 -0.000322792 0.000135682 0.000499372
386 1 0.250008 0.874734 0.874749 0.00056835 -0.000195771 0.00027893
387 1 0.312688 0.937069 0.937103 0.00122991 -0.000485541 -0.000863065
388 1 0.375477 0.99939 0.999524 -0.00219289 0.00361462 -0.0105716
389 1 0.437976 0.0618463 0.0620111 -0.0230072 0.0541107 0.0817896
390 1 0.374437 0.000290851 0.125582 0.000888317 -0.0185276 -0.00837418
391 1 0.439074 0.0610272 0.186193 0.0263354 0.0254926 0.000934317
392 1 0.377179 0.998362 0.248977 -0.0516682 0.0167773 0.0217203
393 1 0.439017 0.0611514 0.315125 0.077931 -0.0806819 -0.00319388
394 1 0.377313 0.997313 0.377163 -0.0136517 0.0388128 -0.0121882
395 1 0.437235 0.0627633 0.437238 0.0621036 -0.0621039 0.0621044
396 1 0.376043 0.998527 0.501437 0.0100497 0.0555454 -0.0582691
397 1 0.43862 0.0613457 0.563653 -0.00626006 0.00636083 0.0156541
398 1 0.375322 0.99936 0.625613 -0.00039395 -0.000306752 -0.000543494
399 1 0.437765 0.06222 0.687806 0.00147081 -0.00164522 0.00427651
400 1 0.375112 0.999773 0.750066 0.000445399 -0.000429514 0.000938261
401 1 0.437627 0.0623643 0.812465 -0.000271866 -0.00042328 -0.00043698
402 1 0.375237 0.999658 0.874712 -0.00255174 0.00182626 0.00236245
403 1 0.437813 0.0621735 0.93719 -0.000947355 0.000543599 -0.00309956
404 1 0.375423 0.124455 0.999427 0.00198532 -0.00787421 -0.0196171
405 1 0.437752 0.186615 0.062055 -0.0033857 -0.00418988 0.0300924
406 1 0.375156 0.124044 0.125325 0.0979103 0.060209 -0.0103457
407 1 0.433798 0.191639 0.191873 0.166446 -0.123042 -0.224313
408 1 0.382823 0.11856 0.250283 -0.0669584 0.01786 -0.035389
409 1 0.448468 0.184378 0.316253 -0.0159882 -0.0468283 0.0301268
410 1 0.370983 0.129015 0.370986 0.240638 -0.240639 0.240642
411 1 0.438847 0.184876 0.43902 0.0806819 0.00319432 0.0779316
412 1 0.37716 0.122686 0.502688 -0.012189 0.0136521 -0.0388137
413 1 0.438459 0.187278 0.563277 -0.014964 -0.0123583 0.0156567
414 1 0.375399 0.124527 0.625335 0.0160813 -0.0158749 0.0296054
415 1 0.437608 0.187428 0.687645 0.00212895 0.000735185 0.00318043
416 1 0.375054 0.124881 0.750062 1.41087e-05 -0.000128312 0.00150579
417 1 0.437521 0.187456 0.812514 -0.000233587 -0.000231162 0.000658222
418 1 0.375052 0.124835 0.874884 0.000976927 -0.00114309 -0.00140414
419 1 0.437822 0.187218 0.937208 0.00179287 0.00220336 -0.0053866
420 1 0.375869 0.249911 0.999007 -0.0688611 -0.0106243 0.059029
421 1 0.437624 0.313303 0.062608 0.103637 0.011294 -0.0892495
422 1 0.37631 0.250077 0.120797 -0.315136 0.0670079 0.114271
423 1 0.448485 0.31561 0.18413 0.0494762 0.084987 -0.0568164
424 1 0.434119 0.309364 0.310676 0.157554 0.158741 -0.0535496
425 1 0.381438 0.249718 0.382825 -0.0178596 0.0353895 -0.0669582
426 1 0.438971 0.313808 0.439077 -0.025491 -0.000934411 0.0263348
427 1 0.376567 0.250883 0.501585 -0.0334615 -0.0198657 -0.0290893
428 1 0.438337 0.313014 0.563196 -0.0482218 0.00978043 -0.0293065
429 1 0.375221 0.249992 0.624964 0.0168798 0.016388 0.0499236
430 1 0.437529 0.312515 0.68762 -0.00225526 0.000957883 -0.000679032
431 1 0.374958 0.249945 0.750038 -0.000379494 0.000481287 0.0017188
432 1 0.437454 0.312481 0.812557 -0.000870801 0.000470252 5.24683e-05
433 1 0.374973 0.249959 0.875043 -0.00190366 -0.000748181 0.00112158
434 1 0.43768 0.312704 0.937425 0.00558682 0.00239269 -0.013171
435 1 0.374901 0.374829 0.000219401 0.0246459 0.00945758 -0.0463698
436 1 0.437392 0.437529 0.0622866 -0.0237626 0.00143265 0.00553156
437 1 0.374291 0.372951 0.127345 -0.00150686 0.0277556 -0.122658
438 1 0.439528 0.438752 0.185823 -0.00417269 0.0453512 0.00663206
439 1 0.378079 0.381869 0.249268 -0.210137 0.0216652 -0.035225
440 1 0.438462 0.438543 0.31356 0.0272453 0.00499055 -0.00795854
441 1 0.375954 0.374676 0.375159 -0.0602092 0.0103443 0.0979097
442 1 0.438152 0.43799 0.437979 -0.05411 -0.0817892 -0.0230076
443 1 0.373872 0.374019 0.499117 0.0447553 0.0263941 0.0478188
444 1 0.437204 0.437233 0.562383 0.00184876 0.000422971 0.00127195
445 1 0.374847 0.374773 0.624836 0.00523628 0.00564347 0.0257948
446 1 0.437386 0.437378 0.687527 0.00103763 0.000800712 0.00457779