ITEM: TIMESTEP
0
ITEM: NUMBER OF ATOMS
1026
ITEM: BOX BOUNDS pp pp pp
0.0000000000000000e+00 2.2857118000000000e+01
0.0000000000000000e+00 2.2857118000000000e+01
0.0000000000000000e+00 2.2857118000000000e+01
ITEM: ATOMS id type xs ys zs fx fy fz
1 1 0.243282 0.238844 0.123303 0.121935 0.0450177 0.00674758
2 1 0.293417 0.31336 0.16648 0.0826399 0.232159 0.309169
3 1 0.223029 0.133891 0.215721 0.203383 -0.100037 0.134867
4 1 0.166477 0.206581 0.186641 0.309168 -0.0826394 -0.23216
5 1 0.366108 0.28428 0.223032 0.100039 -0.134875 0.203384
6 1 0.261153 0.376698 0.243285 -0.0450382 -0.00674772 0.121922
7 1 0.287784 0.140823 0.286855 -0.119488 0.0924558 -0.0339254
8 1 0.359175 0.213147 0.287786 -0.0924548 0.0339222 -0.119492
9 1 0.1233 0.256717 0.261156 0.00674127 -0.121928 -0.0450318
10 1 0.186638 0.33352 0.29342 -0.232141 -0.309167 0.0826309
11 1 0.286852 0.212215 0.359178 -0.0339201 0.119486 -0.0924592
12 1 0.215719 0.276969 0.366111 0.134872 -0.203383 0.100057
13 1 0.999538 0.999788 0.99969 -0.00781216 -0.00565726 -0.006572
14 1 0.0620059 0.0624108 0.0621737 0.00225843 0.022366 0.00236085
15 1 0.999806 0.999666 0.124842 -0.0150891 -0.0114091 -0.0123064
16 1 0.0624521 0.0621303 0.186962 -0.0873781 -0.0998439 -0.0099973
17 1 3.30332e-05 0.99998 0.250079 -0.0249916 -0.00935688 0.00747588
18 1 0.0622391 0.0624006 0.313286 0.014788 0.00824173 0.00882751
19 1 0.999922 0.99986 0.375233 -0.0193359 0.00112532 0.00294687
20 1 0.0621698 0.062147 0.438016 0.0752329 0.0237545 -0.0508349
21 1 0.999814 0.999701 0.500268 0.0104803 0.00302867 -0.00538747
22 1 0.06254 0.0625284 0.562576 -0.00434674 -0.00207752 0.00443214
23 1 0.999927 0.999894 0.625061 -0.00135413 -0.0003392 0.00195916
24 1 0.0624123 0.0624024 0.687564 -0.000377253 -0.000416772 0.00310265
25 1 0.99983 0.999837 0.749895 -8.69433e-05 -0.000509498 0.00177115
26 1 0.062279 0.0622905 0.812283 -0.000166826 -0.000725203 -0.000266594
27 1 0.999552 0.999605 0.874529 0.00310204 0.00153617 0.000662654
28 1 0.061743 0.0617331 0.936665 0.00880203 0.00649698 -0.00231538
29 1 0.998844 0.124166 0.998802 0.0256036 0.00661302 0.0256968
30 1 0.0604619 0.185735 0.0604626 0.0763648 0.0487961 0.0228906
31 1 0.000237996 0.125108 0.125186 -0.063409 -0.0279037 -0.0155101
32 1 0.0604037 0.189689 0.187941 0.0401599 -0.0929617 -0.13168
33 1 0.999431 0.124608 0.249953 0.0155244 0.026161 0.00668509
34 1 0.0609089 0.186812 0.313521 -0.0117377 0.0846861 -0.00134629
35 1 0.999472 0.124624 0.375599 -0.0123593 6.78144e-05 0.00276061
36 1 0.0618634 0.18683 0.438075 -0.00697356 0.00797696 0.013459
37 1 0.999658 0.12466 0.500446 -0.00810446 0.00464182 -0.00769825
38 1 0.0615925 0.18688 0.563388 0.0453345 0.0021723 -0.0449222
39 1 0.999603 0.124643 0.625419 0.00526872 0.000655978 -0.00640639
40 1 0.0623641 0.187408 0.687634 0.0016923 -0.00139797 -0.00272746
41 1 0.999832 0.124907 0.749995 -2.64699e-05 -0.0021526 -0.000427208
42 1 0.0623535 0.187484 0.812416 -0.00139828 -0.00149526 -0.00496595
43 1 0.999594 0.124801 0.874573 0.000878658 -0.000916859 -0.000700065
44 1 0.0618404 0.187388 0.936981 -0.00684365 -0.0185277 -0.0401783
45 1 0.99873 0.249947 0.998494 0.036045 -0.000430993 0.0527547
46 1 0.0595005 0.315004 0.0592301 0.0148028 -0.0140464 -0.0468539
47 1 0.998905 0.250192 0.123116 0.0403562 0.0130932 0.0541002
48 1 0.0623823 0.310919 0.185901 -0.0529232 0.135953 0.0625777
49 1 0.999962 0.250864 0.250895 -0.06006 0.0161726 -0.012886
50 1 0.0590021 0.316455 0.314053 0.0696787 -0.0337934 0.0239386
51 1 0.998814 0.250496 0.376236 0.0592874 0.00105411 -0.0409546
52 1 0.0614713 0.313994 0.439322 -0.0479343 0.00372705 0.0190227
53 1 0.999514 0.249949 0.500635 -0.00340145 -0.0019157 -0.00751919
54 1 0.0615622 0.312557 0.563537 0.0340827 0.00374725 -0.0420084
55 1 0.999533 0.249899 0.625457 -0.00379094 0.00137419 0.00400321
56 1 0.0623698 0.312538 0.687605 -0.00267626 -0.00128428 0.00132967
57 1 0.999833 0.250016 0.749989 -0.00066475 -0.0011311 0.000499781
58 1 0.0623277 0.312638 0.812355 -0.00029928 0.000115467 -0.00187477
59 1 0.99957 0.250045 0.874542 -0.00177345 -0.00335137 -0.000294629
60 1 0.0615991 0.313099 0.936651 0.000613436 0.00923337 -0.0150879
61 1 0.998425 0.376255 0.998366 0.00210671 -0.00956282 0.00749205
62 1 0.0607572 0.439241 0.06076 -0.00165612 0.00165538 -0.00165672
63 1 0.998797 0.375441 0.124162 0.0294539 0.0166802 0.0240339
64 1 0.0592273 0.440498 0.184997 -0.0468522 -0.014802 0.0140475
65 1 0.998097 0.376124 0.248975 0.116719 0.0238667 0.00571932
66 1 0.0604598 0.439536 0.314266 0.0228912 -0.0763658 -0.0487947
67 1 0.998419 0.376354 0.376431 0.0386065 -0.0225882 -0.0160287
68 1 0.0621709 0.437993 0.43759 0.00236253 -0.00225929 -0.0223667
69 1 0.99919 0.375852 0.50102 -0.000439047 0.00380858 -0.00757128
70 1 0.0614385 0.438705 0.563704 0.0111335 -0.00673373 -0.00508381
71 1 0.999497 0.375292 0.625497 -0.0026877 -0.000427368 0.00373103
72 1 0.0623059 0.437757 0.687693 -0.00341286 0.0036362 0.00389307
73 1 0.999801 0.375148 0.749954 -0.00143928 0.000486245 0.00151091
74 1 0.0623488 0.437702 0.812313 -0.00210948 0.00197421 -0.0037079
75 1 0.999461 0.375387 0.874433 -0.00241262 0.00149978 -0.00383934
76 1 0.0619269 0.438117 0.936687 -0.00750811 0.00778525 -0.0103076
77 1 0.998953 0.501045 0.998956 0.000588549 -0.000588818 0.000588545
78 1 0.0618818 0.563314 0.0619296 -0.007785 0.0103075 -0.00750791
79 1 0.998364 0.501573 0.123746 0.0074928 -0.00210747 0.00956343
80 1 0.0616105 0.563146 0.187213 -0.0170352 0.0287559 -0.0172589
81 1 0.998492 0.501269 0.250054 0.0527538 -0.0360442 0.000431014
82 1 0.062009 0.562808 0.312846 -0.0143928 0.0277637 0.012338
83 1 0.998799 0.501154 0.375836 0.0256958 -0.0256025 -0.00661307
84 1 0.0625503 0.562607 0.437589 -0.000359827 0.00619691 -0.00284706
85 1 0.999687 0.500461 0.500213 -0.00657146 0.00781184 0.00565684
86 1 0.062383 0.562725 0.562681 -0.0042177 0.00356224 0.00288453
87 1 0.999503 0.50061 0.625523 0.00237507 -0.000768534 -0.00168528
88 1 0.0623808 0.562776 0.687622 0.000628308 0.00110086 0.000491481
89 1 0.999793 0.500257 0.749973 -0.00207968 0.00196315 -0.000378879
90 1 0.0622932 0.562812 0.812217 -0.00155737 0.00221689 -0.00146989
91 1 0.999569 0.500438 0.874487 -0.0028676 0.00253103 -0.00535426
92 1 0.0618163 0.563358 0.936631 0.00393575 -0.00166198 0.00115614
93 1 0.999561 0.625514 0.999572 -0.00253096 0.00535422 -0.00286755
94 1 0.0622968 0.687688 0.0623516 -0.00197417 0.00370793 -0.00210953
95 1 0.999524 0.625482 0.12474 -0.0044475 0.00628919 -0.00423579
96 1 0.0623374 0.687619 0.187474 -0.000961433 0.00143909 -0.000632917
97 1 0.999651 0.625319 0.250081 -0.0032407 0.0042867 0.000648826
98 1 0.062461 0.687528 0.312547 -0.000178102 0.00152549 0.00181788
99 1 0.999778 0.625262 0.37522 0.00146462 -0.000565961 0.00181985
100 1 0.0625931 0.687493 0.437453 -0.000250674 0.0013397 0.0010531
101 1 0.999988 0.625152 0.500064 -0.000323172 0.00126492 0.00133087
102 1 0.0624714 0.687525 0.562527 -0.000303907 -0.000475104 -0.000999896
103 1 0.999886 0.625168 0.625057 -0.00104624 0.000416623 1.36413e-05
104 1 0.0624111 0.687556 0.687445 0.000304543 8.1857e-05 -0.000174618
105 1 0.999808 0.625237 0.749889 4.30663e-05 0.00104499 -5.73673e-05
106 1 0.0623067 0.687698 0.812233 0.00101613 0.000452696 -0.000588847
107 1 0.999594 0.625454 0.874525 0.000979158 0.000202266 -0.000372153
108 1 0.06221 0.687803 0.937136 -0.000276194 0.000277705 -0.00100491
109 1 0.999741 0.750028 0.999796 -0.00196309 0.000378929 -0.00207963
110 1 0.0622415 0.812308 0.0623087 -0.00363605 -0.00389293 -0.00341271
111 1 0.999831 0.750046 0.124961 -0.00141938 -0.000780949 -0.000532932
112 1 0.0624324 0.81242 0.18755 -0.00302762 -0.00146423 0.00168562
113 1 0.999918 0.750005 0.250061 -0.000898013 0.000279101 0.000522557
114 1 0.0625012 0.812412 0.312579 0.00262006 0.00295047 0.00138948
115 1 0.999979 0.749976 0.375067 0.000817239 0.000492853 0.00204889
116 1 0.0626172 0.812469 0.437394 -0.000857164 -0.00455835 0.00123853
117 1 5.88634e-05 0.749993 0.49995 -0.00055784 -0.0014295 0.000946949
118 1 0.0623687 0.812307 0.56257 4.74488e-05 0.00155762 -0.00173653
119 1 0.999906 0.749959 0.624984 0.000210028 0.000293208 -0.000693909
120 1 0.0623621 0.812372 0.687457 0.000275766 -0.000160992 8.63442e-05
121 1 0.99982 0.750029 0.749838 0.000883137 0.00016515 -0.000443568
122 1 0.0622982 0.8124 0.812298 0.00108463 -3.45578e-05 -0.000224368
123 1 0.999718 0.750064 0.874705 0.000641873 -0.000205403 -0.000795341
124 1 0.0622172 0.812314 0.937176 0.00103927 -0.001406 -0.00202417
125 1 0.999388 0.874478 0.999506 0.000768277 0.00168499 0.0023749
126 1 0.061293 0.936297 0.0614413 0.00673351 0.00508329 0.0111333
127 1 0.99958 0.874601 0.124919 -0.0018084 -0.00222382 -1.04139e-05
128 1 0.061693 0.936607 0.187667 0.0428731 0.0498376 -0.00183598
129 1 0.999674 0.874672 0.250174 -0.00503044 -0.00562976 -0.002085
130 1 0.0617676 0.936792 0.31306 0.0549885 0.0569495 -0.0030222
131 1 0.999758 0.874693 0.375265 0.0048346 0.00690312 0.000831697
132 1 0.0627395 0.937604 0.437215 -0.00175819 -0.00280401 0.00280197
133 1 6.54465e-05 0.874953 0.499913 -0.0016353 -0.00198693 0.000984217
134 1 0.0622714 0.937197 0.562702 -0.0021001 -0.00182626 0.00282594
135 1 0.999876 0.874834 0.625021 -0.000564945 -0.000774864 0.00102116
136 1 0.0622638 0.93723 0.687598 0.000670238 0.00131667 -0.00148923
137 1 0.999779 0.874811 0.749881 0.000714224 0.000377762 -0.000111757
138 1 0.0622393 0.937198 0.812258 0.000986363 0.000394529 0.000644967
139 1 0.999625 0.874742 0.874682 0.00103808 0.00172643 0.00112539
140 1 0.0619351 0.936966 0.936979 0.000291419 0.00252679 0.000977416
141 1 0.124147 0.998981 0.999193 -0.00380817 0.00757247 -0.000437345
142 1 0.186004 0.0606791 0.0614741 -0.00372578 -0.0190233 -0.0479358
143 1 0.122451 0.997258 0.122645 -0.00104982 -0.0743835 0.00905103
144 1 0.183284 0.0508121 0.183741 -0.0418237 -0.0991479 -0.0861767
145 1 0.12361 0.999214 0.25142 0.0534082 -0.0457327 -0.00251954
146 1 0.191705 0.0660898 0.308812 -0.228581 -0.158258 0.100093
147 1 0.125902 0.000779888 0.373934 -0.0175776 -0.036645 0.034302
148 1 0.186086 0.0608646 0.439048 -0.00225318 -0.0299279 -0.0157883
149 1 0.124436 0.999392 0.500515 -0.00784271 -0.00912578 0.0130644
150 1 0.186835 0.0614408 0.563304 -0.00415152 0.0298945 -0.0150928
151 1 0.124624 0.999536 0.625407 0.000182393 0.00582651 -0.00606412
152 1 0.187374 0.0622682 0.687644 -0.00112422 0.00107274 -0.000358485
153 1 0.124846 0.999772 0.749984 -0.000628649 -0.000318342 0.000106668
154 1 0.18737 0.0622667 0.812406 0.000778113 -0.000746189 -0.00193357
155 1 0.124693 0.999501 0.874575 0.00268164 0.00147992 0.00247411
156 1 0.187131 0.0616355 0.936945 -0.00376207 -0.00226805 -0.0165773
157 1 0.123645 0.12357 0.998421 0.0225881 0.0160289 0.0386067
158 1 0.183544 0.185948 0.0590048 0.0337897 -0.0239395 0.0696985
159 1 0.126103 0.124435 0.126574 0.0258352 0.163918 0.0376194
160 1 0.121121 0.124279 0.249761 0.0906506 0.25317 -0.051674
161 1 0.186458 0.185274 0.311208 0.10451 0.0228162 0.0231963
162 1 0.1256 0.125085 0.375644 -0.00346335 -0.0905738 -0.059919
163 1 0.190507 0.189216 0.434275 -0.148764 0.0910513 0.146101
164 1 0.125505 0.12559 0.499712 -0.00307464 0.00498936 0.014575
165 1 0.187555 0.187367 0.562476 -0.00785642 -0.00156566 -0.00528947
166 1 0.124988 0.124914 0.625056 -0.004374 -0.00268243 0.0194202
167 1 0.187498 0.18744 0.687465 -0.00124326 -0.000720616 -0.000851401
168 1 0.124922 0.12492 0.749983 0.000420118 0.000347786 0.000713562
169 1 0.187371 0.187408 0.812495 -8.86756e-05 0.000768209 -0.000566656
170 1 0.12467 0.124713 0.874734 -0.00460234 -0.00478602 -0.00763075
171 1 0.186922 0.187129 0.937134 -0.00546133 -0.0054913 -0.0270352
172 1 0.123875 0.251026 0.9981 -0.0238677 -0.00571954 0.116722
173 1 0.189079 0.3141 0.0623851 -0.135953 -0.0625759 -0.0529235
174 1 0.118923 0.253528 0.114401 0.0405004 0.0565638 0.123009
175 1 0.183166 0.316832 0.183169 0.113581 -0.11358 0.113588
176 1 0.11911 0.251602 0.376608 0.0392262 0.0184212 -0.185664
177 1 0.183738 0.316715 0.449189 -0.086176 0.0418217 0.0991547
178 1 0.123295 0.248613 0.501162 0.0781891 0.0350424 -0.00338516
179 1 0.187154 0.312781 0.563988 -0.0127143 0.00847717 -0.198587
180 1 0.124771 0.249832 0.624945 -0.0169929 -0.0162957 0.0569502
181 1 0.187444 0.312505 0.687554 0.00192954 -0.00173951 -0.00848001
182 1 0.12494 0.25 0.749982 -0.000115218 -0.00107018 0.00119403
183 1 0.187466 0.312536 0.812551 0.000145003 0.00134728 -0.00526931
184 1 0.124784 0.25016 0.874863 -0.00361426 0.00195665 -0.00569989
185 1 0.187536 0.312817 0.93765 0.00798894 0.0124147 -0.0655876
186 1 0.124557 0.37584 0.998799 -0.0166794 -0.0240349 0.0294568
187 1 0.184994 0.440771 0.0595032 0.0140464 0.0468544 0.0147998
188 1 0.122087 0.377911 0.12209 0.0666883 -0.0666905 0.0666901
189 1 0.185899 0.437616 0.189082 0.0625786 0.0529327 -0.135957
190 1 0.114399 0.381076 0.246473 0.123026 -0.0405038 -0.0565593
191 1 0.187938 0.439595 0.310312 -0.131684 -0.0401654 0.092957
192 1 0.126571 0.373895 0.375566 0.0376263 -0.025845 -0.163924
193 1 0.186959 0.437546 0.437871 -0.00999835 0.0873757 0.099842
194 1 0.122643 0.377547 0.502743 0.00905082 0.00104935 0.0743836
195 1 0.187665 0.438305 0.563394 -0.00183625 -0.0428742 -0.0498387
196 1 0.12467 0.375358 0.625282 -0.0144412 0.016791 0.0281403
197 1 0.187548 0.437566 0.687581 0.00168571 0.0030277 0.00146434
198 1 0.124946 0.375086 0.749996 -0.000341412 0.000535656 -2.5346e-06
199 1 0.187471 0.437661 0.812382 -0.000632994 0.000961412 -0.00143901
200 1 0.124909 0.375219 0.874811 -0.00295041 0.0020489 -0.0100248
201 1 0.18721 0.438388 0.936855 -0.0172591 0.0170353 -0.0287555
202 1 0.123743 0.501635 0.998428 0.00956335 -0.00749233 0.00210757
203 1 0.186899 0.56335 0.0616019 -0.00923314 0.015089 0.000611781
204 1 0.124159 0.501202 0.12456 0.0240347 -0.0294556 -0.0166796
205 1 0.187181 0.562351 0.187539 -0.0124146 0.0655882 0.00798842
206 1 0.123114 0.501094 0.249809 0.0541024 -0.0403616 -0.0130925
207 1 0.187584 0.56239 0.312106 -0.00786301 0.014446 0.000254414
208 1 0.125183 0.49976 0.374893 -0.0155106 0.0634097 0.0279039
209 1 0.187369 0.562535 0.437627 0.00050598 0.00466716 -6.50149e-05
210 1 0.12484 0.500192 0.500335 -0.0123069 0.01509 0.01141
211 1 0.187546 0.562595 0.562601 0.00196751 0.000818433 -0.000370775
212 1 0.124916 0.500418 0.6254 -1.0465e-05 0.00180828 0.00222373
213 1 0.187533 0.562675 0.687611 0.000248525 0.00161829 0.00022581
214 1 0.124958 0.500168 0.749955 -0.000532941 0.00141941 0.000781103
215 1 0.187477 0.562731 0.812292 -5.5868e-05 0.00182685 -0.0019808
216 1 0.124738 0.500474 0.874519 -0.00423594 0.00444764 -0.00628943
217 1 0.187273 0.563286 0.936731 0.00153905 -0.00012255 -4.32574e-05
218 1 0.124612 0.625568 0.999464 -0.00149974 0.00383953 -0.0024127
219 1 0.18736 0.687646 0.0623304 -0.000115499 0.00187507 -0.00029949
220 1 0.12478 0.62519 0.124911 -0.00204901 0.0100242 -0.00295038
221 1 0.187462 0.68745 0.187469 -0.00134722 0.00526953 0.000145014
222 1 0.124758 0.62506 0.249959 0.00234892 0.00139647 -0.000828391
223 1 0.187587 0.687406 0.312377 -0.000233047 0.00111267 4.70863e-05
224 1 0.125087 0.624892 0.374897 0.00010188 0.00696132 0.00204951
225 1 0.187531 0.687436 0.437452 0.000427386 -0.000677827 -0.00112338
226 1 0.124984 0.625068 0.500084 0.00158702 -0.00259197 -0.00250518
227 1 0.187505 0.687467 0.562525 0.000743842 -0.000856067 -0.00068772
228 1 0.124988 0.625082 0.625044 9.94711e-06 0.000206248 -9.80342e-05
229 1 0.187482 0.687505 0.687474 0.000230441 8.18768e-05 -0.000362274
230 1 0.124938 0.625171 0.74991 0.000107549 0.00122733 -0.000380205
231 1 0.187448 0.687652 0.812277 0.000764211 0.000314817 -0.0005465
232 1 0.124785 0.62543 0.874546 0.00175174 0.000320591 -0.000758856
233 1 0.187394 0.687746 0.937187 0.000920142 0.00110441 -0.00132219
234 1 0.124851 0.750048 0.999803 -0.000486242 -0.00151081 -0.00143938
235 1 0.18746 0.812396 0.0623726 0.00128427 -0.00132955 -0.00267616
236 1 0.124913 0.750005 0.124949 -0.000535682 2.53731e-06 -0.000341441
237 1 0.187493 0.812448 0.187447 0.00173951 0.00848023 0.00192955
238 1 0.12502 0.750014 0.250006 0.000311568 -0.00147128 0.000898453
239 1 0.187662 0.812575 0.312417 -0.00117336 0.000107923 0.000561046
240 1 0.125126 0.749968 0.374907 4.51073e-05 -0.000379506 0.000344697
241 1 0.187485 0.812374 0.437538 -0.0013483 6.1371e-05 -0.00183553
242 1 0.124997 0.749907 0.499999 -0.00100162 -0.000153318 -0.00121011
243 1 0.187411 0.812257 0.562639 0.000987659 -0.00156138 0.00092456
244 1 0.124934 0.749906 0.625014 0.000635273 -0.000756927 0.000224151
245 1 0.187417 0.812328 0.687524 0.000338594 -0.000316291 -0.000188966
246 1 0.124897 0.749989 0.749874 0.000682094 0.000184467 -0.000404617
247 1 0.187424 0.812386 0.812344 0.000767425 -5.86367e-06 -0.000116629
248 1 0.124851 0.750044 0.874734 0.000717994 -0.000177937 -0.000992382
249 1 0.187419 0.812318 0.937218 0.000868723 -0.00041316 -0.00138501
250 1 0.124706 0.874505 0.9995 0.000427443 -0.00373115 -0.00268776
251 1 0.187441 0.936464 0.0615649 -0.00374742 0.0420072 0.0340817
252 1 0.124641 0.87472 0.124673 -0.016791 -0.0281409 -0.0144411
253 1 0.187217 0.936013 0.187157 -0.00847652 0.198586 -0.0127136
254 1 0.124916 0.875132 0.250162 -0.0165547 -0.0567633 0.017816
255 1 0.187913 0.937802 0.31226 -0.0127586 -0.00653133 -0.00249877
256 1 0.125227 0.875148 0.374855 -0.00567528 -0.0253714 0.0051664
257 1 0.186963 0.936794 0.438357 -0.0105429 0.0227543 -0.0426364
258 1 0.124718 0.874603 0.500279 -0.00117975 0.00684582 -0.00699418
259 1 0.18732 0.937064 0.562861 -0.00411083 -0.00644974 0.00591981
260 1 0.124842 0.874741 0.62513 -0.000397284 -0.00114723 0.000640569
261 1 0.187362 0.937185 0.687671 0.0010253 -0.000957532 0.00109687
262 1 0.124852 0.874784 0.749939 0.000997716 -0.000389975 0.000570156
263 1 0.187419 0.937221 0.812334 9.28356e-05 0.000117663 0.000992263
264 1 0.124806 0.874741 0.874724 0.00127406 8.34858e-05 -0.000339498
265 1 0.187369 0.937046 0.937093 0.00250604 0.00113186 -0.000354953
266 1 0.25005 0.999366 0.999517 0.00191527 0.00752055 -0.00340007
267 1 0.313168 0.0619265 0.0618661 -0.00797836 -0.0134577 -0.0069718
268 1 0.251385 0.998839 0.123298 -0.0350411 0.00338418 0.078188
269 1 0.310783 0.0657257 0.19051 -0.0910464 -0.146104 -0.148765
270 1 0.250429 0.00045521 0.249537 -0.052679 -0.0567751 -0.0566686
271 1 0.316438 0.0510949 0.315797 0.0384323 -0.00751397 0.0555588
272 1 0.249117 0.998291 0.376708 0.0215561 0.0366601 -0.041416
273 1 0.315145 0.0608332 0.438991 -0.0057483 -0.0767405 0.0812721
274 1 0.250195 0.99911 0.500794 -0.00639274 0.0253927 -0.0198883
275 1 0.312721 0.0612586 0.563458 0.00959225 0.022707 0.00413404
276 1 0.2499 0.999435 0.625485 0.00144781 -0.00144794 0.00174911
277 1 0.312551 0.0622557 0.687664 -0.00103564 -0.00288673 0.00323777
278 1 0.249969 0.999781 0.750031 0.000237222 -0.000263492 0.000795192
279 1 0.312521 0.062316 0.812441 -0.000457006 0.00072834 0.000572634
280 1 0.250012 0.999617 0.874714 -0.00130627 0.00219455 0.00295119
281 1 0.312675 0.0619617 0.937149 -0.00341908 0.0014343 -0.0111309
282 1 0.249503 0.123765 0.998817 -0.00105458 0.0409548 0.0592886
283 1 0.313186 0.18648 0.0609117 -0.0846823 0.00134552 -0.0117419
284 1 0.248396 0.123393 0.119113 -0.0184327 0.185673 0.0392309
285 1 0.314724 0.188793 0.186461 -0.0228124 -0.0231865 0.104522
286 1 0.250208 0.117007 0.381773 -0.0393296 0.0700009 -0.0131675
287 1 0.315794 0.18356 0.448906 0.0555608 -0.0384353 0.00751885
288 1 0.248945 0.122724 0.501751 0.0245288 0.0580489 -0.0218004
289 1 0.312787 0.18697 0.564079 3.38268e-05 -0.00644792 -0.178967
290 1 0.249898 0.124544 0.625056 -0.0171399 -0.0156414 0.0472505
291 1 0.312523 0.187343 0.687604 -0.00191026 0.00193696 -0.00929951
292 1 0.249943 0.124863 0.750008 -0.000803757 -0.000221688 0.00182425
293 1 0.312414 0.187409 0.812564 0.000463463 -0.000266322 -0.000546578
294 1 0.249866 0.12469 0.874883 0.000172704 0.0016423 0.000220596
295 1 0.312383 0.187234 0.937467 0.00269316 -0.00205683 -0.0161504
296 1 0.249134 0.249106 0.999965 -0.0161725 0.0128879 -0.0600592
297 1 0.310309 0.312061 0.0604065 0.0929633 0.131683 0.0401586
298 1 0.250465 0.249533 0.250468 -0.134241 0.13425 -0.134254
299 1 0.311205 0.31354 0.314727 0.0231874 -0.104515 -0.0228148
300 1 0.308809 0.308294 0.433911 0.100089 0.228581 0.158254
301 1 0.249534 0.24957 0.499546 -0.0566696 0.0526801 0.0567737
302 1 0.312257 0.312085 0.562199 -0.00249879 0.0127585 0.00653183
303 1 0.249953 0.249847 0.624723 -0.00151711 0.00176956 0.0838328
304 1 0.312414 0.312336 0.687426 0.000561111 0.00117333 -0.000107749
305 1 0.24993 0.249922 0.750008 -7.74856e-05 6.75076e-06 0.000230838
306 1 0.312375 0.312412 0.812596 4.70469e-05 0.000233045 -0.00111258
307 1 0.249785 0.249878 0.875131 -0.00118285 0.000748696 -0.00947619
308 1 0.312103 0.312414 0.937611 0.000254276 0.00786346 -0.0144464
309 1 0.249806 0.376885 0.998908 -0.0130935 -0.0541032 0.0403585
310 1 0.314264 0.439538 0.0604647 -0.0487955 -0.0228903 0.0763645
311 1 0.24647 0.3856 0.118925 -0.0565623 -0.123003 0.0404951
312 1 0.314051 0.440996 0.183547 0.0239388 -0.0696945 0.033791
313 1 0.313518 0.439089 0.313189 -0.00134646 0.0117412 -0.0846834
314 1 0.249758 0.378877 0.375722 -0.0516708 -0.090649 -0.253165
315 1 0.313284 0.437759 0.4376 0.00882818 -0.0147861 -0.00824118
316 1 0.251418 0.376388 0.500787 -0.0025216 -0.0534089 0.0457316
317 1 0.313058 0.438231 0.563209 -0.00302226 -0.0549878 -0.0569487
318 1 0.250159 0.375083 0.624869 0.0178161 0.0165545 0.0567631
319 1 0.312577 0.437497 0.687589 0.00138951 -0.00262006 -0.00295036
320 1 0.250004 0.374978 0.749987 0.000898427 -0.000311589 0.00147129
321 1 0.312545 0.437537 0.812473 0.00181794 0.000178073 -0.00152535
322 1 0.249956 0.37524 0.874941 -0.000828391 -0.00234914 -0.00139668
323 1 0.312844 0.437989 0.937194 0.0123384 0.0143935 -0.0277644
324 1 0.250051 0.501507 0.998732 0.000430868 -0.0527551 0.0360461
325 1 0.31261 0.56302 0.0618432 0.0185274 0.0401791 -0.00684425
326 1 0.248972 0.501902 0.123877 0.00571783 -0.116724 -0.0238675
327 1 0.31287 0.562867 0.186925 0.00549208 0.0270379 -0.00546102
328 1 0.250892 0.500036 0.249137 -0.0128868 0.0600552 -0.016172
329 1 0.312764 0.562535 0.312386 0.00205671 0.0161507 0.00269342
330 1 0.249951 0.500567 0.375393 0.00668573 -0.0155247 -0.0261617
331 1 0.312688 0.562657 0.437684 -0.00317159 0.00153485 -0.00305889
332 1 0.250076 0.499965 0.500021 0.00747589 0.0249918 0.00935701
333 1 0.312583 0.562573 0.562564 0.00186844 0.00063368 -0.00109874
334 1 0.250172 0.500324 0.625329 -0.00208509 0.00503046 0.00562974
335 1 0.312616 0.562622 0.687617 -0.00086175 0.00186067 0.000815909
336 1 0.250058 0.500081 0.749996 0.000522629 0.000897956 -0.000279029
337 1 0.312602 0.562668 0.812338 0.000284373 0.00113653 -0.000881325
338 1 0.250078 0.500347 0.874682 0.000649051 0.00324088 -0.00428678
339 1 0.312725 0.563172 0.936833 -0.00116707 0.00301621 -0.000932213
340 1 0.249953 0.625459 0.999573 0.00335138 0.000294637 -0.00177359
341 1 0.312514 0.687585 0.0623563 0.00149524 0.00496604 -0.00139833
342 1 0.249838 0.625138 0.124787 -0.00195656 0.0056985 -0.00361405
343 1 0.31259 0.687506 0.187374 -0.000768194 0.000566967 -8.86891e-05
344 1 0.25012 0.62487 0.249787 -0.000748656 0.00947609 -0.00118263
345 1 0.312589 0.687437 0.312417 0.000266285 0.000546616 0.000463387
346 1 0.250046 0.624924 0.374941 -0.0002042 -0.00136614 -0.00261305
347 1 0.312541 0.687466 0.437507 8.92084e-05 -0.00144576 -0.00118554
348 1 0.250008 0.624993 0.500023 0.00141175 0.00021481 -0.000300717
349 1 0.312514 0.687443 0.562558 0.000564331 -0.000227398 -0.000526337
350 1 0.250042 0.625034 0.625049 0.000637334 -0.00062422 -0.000901254
351 1 0.312541 0.687471 0.687511 0.000598157 -4.55126e-05 -0.000209491
352 1 0.250038 0.625112 0.749944 0.000481306 0.00107149 -0.000443006
353 1 0.312566 0.687617 0.812315 0.000465129 8.87396e-05 -0.000455553
354 1 0.250015 0.625358 0.874618 0.000953697 0.000228031 -0.000489197
355 1 0.312557 0.687711 0.937219 0.00170757 0.000283506 -0.000354977
356 1 0.249983 0.750012 0.999836 0.00113108 -0.000499778 -0.000664743
357 1 0.312591 0.812367 0.0623669 0.00139789 0.00272752 0.00169235
358 1 0.249998 0.750019 0.124943 0.00107015 -0.00119406 -0.000115209
359 1 0.312558 0.812536 0.187501 0.000720544 0.000851542 -0.00124326
360 1 0.250077 0.749993 0.249933 -6.75855e-06 -0.000230857 -7.7533e-05
361 1 0.312655 0.812397 0.312525 -0.00193715 0.00929984 -0.00191022
362 1 0.250057 0.74996 0.37496 -0.000232056 -0.00176505 -0.000386725
363 1 0.312576 0.812342 0.437615 -0.000552217 -0.00372368 0.00273787
364 1 0.250004 0.749883 0.500033 0.000211789 -0.000637166 -0.000299587
365 1 0.312528 0.812192 0.562739 0.000245029 -0.000943188 0.000695728
366 1 0.249983 0.749865 0.625066 0.000326117 -0.000452257 7.71079e-05
367 1 0.312523 0.812296 0.687586 0.000369928 -0.000613093 -7.46978e-05
368 1 0.249992 0.749959 0.749919 0.000585352 -0.000164995 -0.000309699
369 1 0.312551 0.812377 0.812384 0.000416945 6.28525e-05 0.00029298
370 1 0.249994 0.750021 0.874775 0.000804312 -0.000389616 -0.000700634
371 1 0.312604 0.81232 0.937242 -0.000372226 -0.000658887 -0.000649358
372 1 0.250099 0.874544 0.999536 -0.00137421 -0.00400308 -0.00379091
373 1 0.313118 0.936613 0.0615953 -0.00217222 0.0449221 0.0453347
374 1 0.250167 0.875056 0.124774 0.0162956 -0.0569501 -0.0169928
375 1 0.312632 0.937525 0.187558 0.00156565 0.00528926 -0.00785651
376 1 0.250151 0.875278 0.249955 -0.00176962 -0.0838326 -0.00151704
377 1 0.313029 0.935922 0.31279 0.00644778 0.178967 3.41524e-05
378 1 0.250011 0.875015 0.375242 -0.0169602 -0.0485692 0.0162524
379 1 0.312735 0.936643 0.438526 0.0138943 -0.0130202 -0.0164277
380 1 0.249939 0.874532 0.500406 0.00243645 -0.00334651 0.00274547
381 1 0.31263 0.936814 0.563132 -0.00183947 -0.00459284 0.00416882
382 1 0.249928 0.874657 0.625245 -0.00012194 -0.000760696 -6.9447e-05
383 1 0.312542 0.93714 0.687751 -2.02353e-05 -0.00111919 0.000644655
384 1 0.249973 0.87477 0.749997 0.000287853 -0.00018929 0.000395528
385 1 0.312569 0.937248 0.812387 -0.000439906 0.00102907 0.0013814
386 1 0.250008 0.874759 0.87477 0.000546769 0.00063793 0.000820158
387 1 0.31266 0.937134 0.937157 0.000752972 0.00243918 0.00121519
388 1 0.375338 0.999555 0.999661 -0.00464202 0.0076986 -0.00810415
389 1 0.437851 0.061985 0.0621726 -0.0237551 0.050835 0.0752329
390 1 0.374409 0.000289489 0.125508 -0.00498868 -0.014575 -0.00307484
391 1 0.439134 0.0609527 0.186088 0.0299279 0.0157872 -0.00225357
392 1 0.377274 0.99825 0.248948 -0.0580483 0.0218004 0.0245287
393 1 0.439165 0.0610098 0.315148 0.0767404 -0.0812721 -0.00574749
394 1 0.377445 0.997176 0.377293 -0.0144227 0.0258136 -0.0134805
395 1 0.437405 0.0625935 0.437408 0.0497598 -0.0497601 0.0497604
396 1 0.37607 0.998514 0.501451 0.0115292 0.0441833 -0.0467542
397 1 0.43868 0.0612841 0.563738 -0.0066242 0.00681983 0.0153281
398 1 0.375329 0.999335 0.625643 -0.0001763 -0.000676776 0.000136941
399 1 0.437765 0.0622174 0.687818 0.00185238 -0.00216675 0.00532098
400 1 0.375103 0.99978 0.750085 8.11766e-05 -0.00023622 0.00159391
401 1 0.437612 0.0623706 0.812485 -0.000805507 -4.29242e-05 0.000778801
402 1 0.375182 0.999713 0.874772 -0.00365853 0.00285023 0.0036216
403 1 0.437784 0.0621801 0.93722 -0.00401756 0.00254932 0.000204681
404 1 0.375375 0.124403 0.999475 -6.83827e-05 -0.0027603 -0.0123585
405 1 0.437598 0.186715 0.0622419 -0.00824094 -0.00882809 0.0147864
406 1 0.374913 0.124357 0.125603 0.0905752 0.059918 -0.00346535
407 1 0.433909 0.191189 0.191707 0.158255 -0.100092 -0.22858
408 1 0.382991 0.118228 0.25021 -0.0700011 0.0131688 -0.0393292
409 1 0.448903 0.184204 0.316441 0.007514 -0.0555584 0.0384339
410 1 0.371523 0.128475 0.371526 0.224139 -0.22414 0.224143
411 1 0.438988 0.184853 0.439168 0.0812722 0.005748 0.0767408
412 1 0.37729 0.122554 0.502825 -0.0134821 0.0144239 -0.0258151
413 1 0.438523 0.187263 0.563358 -0.0164276 -0.0138943 0.0130202
414 1 0.375396 0.124526 0.625346 0.0162154 -0.0161466 0.0285971
415 1 0.437613 0.187422 0.687659 0.00273791 0.000552071 0.00372362
416 1 0.375049 0.124882 0.750069 -9.18514e-05 -0.000193671 0.00208414
417 1 0.437504 0.187457 0.812535 -0.00118557 -8.9355e-05 0.00144573
418 1 0.375029 0.124845 0.87492 0.000563485 -0.000670457 0.000591569
419 1 0.437681 0.18731 0.937344 -0.00305884 0.00317172 -0.00153477
420 1 0.37539 0.250048 0.999434 -0.0261642 -0.00668548 0.0155273
421 1 0.437868 0.313039 0.0624549 0.0998423 0.00999818 -0.0873774
422 1 0.375719 0.250241 0.121124 -0.253166 0.0516682 0.0906485
423 1 0.449186 0.31626 0.183287 0.0991456 0.0861789 -0.0418271
424 1 0.434273 0.309491 0.310785 0.146106 0.148765 -0.0910437
425 1 0.381771 0.249791 0.382994 -0.01317 0.0393298 -0.0700013
426 1 0.439046 0.313913 0.439136 -0.0157858 0.00225324 0.0299272
427 1 0.376706 0.250882 0.50171 -0.041418 -0.0215558 -0.0366607
428 1 0.438354 0.313035 0.563207 -0.0426351 0.0105427 -0.0227531
429 1 0.375239 0.249987 0.624986 0.0162521 0.0169602 0.0485687
430 1 0.437536 0.312514 0.687627 -0.00183549 0.00134827 -6.13392e-05
431 1 0.374958 0.249941 0.750042 -0.000386813 0.00023194 0.00176505
432 1 0.437449 0.312468 0.812565 -0.00112338 -0.000427441 0.000677859
433 1 0.374938 0.249952 0.875078 -0.00261321 0.000204261 0.00136624
434 1 0.437624 0.312629 0.937466 -6.49667e-05 -0.000505939 -0.0046674
435 1 0.374891 0.374815 0.000240787 0.0279039 0.0155102 -0.0634086
436 1 0.437588 0.437827 0.0620087 -0.0223666 -0.00236166 0.00225845
437 1 0.375563 0.373427 0.126106 -0.163921 -0.0376189 0.025839
438 1 0.439319 0.438527 0.186007 0.0190238 0.0479367 -0.00372726
439 1 0.376605 0.380888 0.248399 -0.185664 -0.0392324 -0.018427
440 1 0.438072 0.438135 0.313171 0.0134571 0.00697261 -0.00797752
441 1 0.375642 0.374398 0.374916 -0.0599175 0.00346403 0.0905746
442 1 0.438013 0.437829 0.437854 -0.0508342 -0.0752324 -0.0237554
443 1 0.373931 0.374096 0.499221 0.0342998 0.0175765 0.0366441
444 1 0.437212 0.437259 0.562397 0.00280203 0.00175833 0.00280421
445 1 0.374852 0.374771 0.624854 0.00516633 0.00567526 0.0253711
446 1 0.437391 0.437381 0.687532 0.00123861 0.000857158 0.00455833
447 1 0.374904 0.374872 0.750033 0.000344769 -4.51048e-05 0.000379499