ITEM: TIMESTEP
0
ITEM: NUMBER OF ATOMS
1026
ITEM: BOX BOUNDS pp pp pp
0.0000000000000000e+00 2.2857118000000000e+01
0.0000000000000000e+00 2.2857118000000000e+01
0.0000000000000000e+00 2.2857118000000000e+01
ITEM: ATOMS id type xs ys zs fx fy fz
1 1 0.247746 0.250792 0.11964 0.0367384 0.0645141 0.298658
2 1 0.299433 0.319345 0.178957 -0.209333 -0.17642 0.278128
3 1 0.223492 0.125636 0.22303 0.152992 -0.141128 0.165702
4 1 0.178955 0.200566 0.180656 0.278131 0.209333 0.176419
5 1 0.374362 0.276971 0.223495 0.141126 -0.165701 0.152992
6 1 0.249207 0.380361 0.247749 -0.0645089 -0.29866 0.0367373
7 1 0.289846 0.140182 0.289735 -0.175414 -0.00275778 -0.1703
8 1 0.359816 0.210266 0.289849 0.00275737 0.170301 -0.175414
9 1 0.119637 0.252252 0.249209 0.298661 -0.036739 -0.0645122
10 1 0.180653 0.321044 0.299435 0.176421 -0.278127 -0.209332
11 1 0.289733 0.210152 0.359819 -0.170301 0.175416 0.00275623
12 1 0.223028 0.276506 0.374365 0.165701 -0.152992 0.141123
13 1 0.999405 0.999795 0.999491 0.00116978 -0.000437226 0.000248432
14 1 0.0616696 0.0625673 0.0617755 0.0321483 0.00802992 0.031165
15 1 0.999622 0.999501 0.124623 -0.0128118 -0.0119872 -0.0198855
16 1 0.062156 0.0616614 0.186671 -0.0394506 -0.0484254 -0.0262009
17 1 0.000113021 5.0305e-05 0.250134 -0.0303242 -0.0152486 0.0109826
18 1 0.0629821 0.062944 0.312692 -0.0369156 -0.00611998 0.0226222
19 1 0.000167358 0.000181103 0.375042 -0.0065023 0.00601396 -0.00221233
20 1 0.0628597 0.0627072 0.437358 0.0334865 0.0142269 -0.018974
21 1 9.35572e-05 2.29274e-05 0.499962 0.00432073 0.00221055 -0.00254243
22 1 0.0625084 0.0626443 0.56251 -0.0034759 -0.00198156 0.00626653
23 1 0.999939 0.999974 0.625001 -0.000965114 0.00164155 0.00195588
24 1 0.06242 0.0624439 0.687544 0.000241116 -7.0968e-05 0.00309782
25 1 0.999859 0.999887 0.749903 0.000929014 0.000380201 0.00218571
26 1 0.062329 0.0623456 0.812335 0.0015273 0.000838694 0.00166977
27 1 0.999677 0.99976 0.874661 0.00201659 0.00230076 0.00137664
28 1 0.0620164 0.0621079 0.93701 0.00234409 0.00610708 -0.00312961
29 1 0.999073 0.12463 0.999092 0.0114148 0.00425252 0.0126757
30 1 0.0609973 0.186917 0.0610582 0.0568568 0.00770268 0.0516071
31 1 0.99973 0.124826 0.124654 -0.0332701 -0.00605931 -0.00983781
32 1 0.061038 0.188407 0.185929 -0.0146666 0.0223734 -0.0524184
33 1 0.999828 0.125104 0.249691 0.0233235 0.000991846 -0.000785897
34 1 0.0624175 0.187784 0.312493 -0.111037 0.00923289 0.0121396
35 1 0.000224047 0.125189 0.37502 0.00487991 0.00346384 -0.00522528
36 1 0.0629495 0.187541 0.437189 -0.035772 -0.0211952 0.00275165
37 1 0.000108523 0.125027 0.499907 -0.0036041 0.00331977 -0.00798414
38 1 0.0616333 0.186957 0.563329 0.0373662 0.00582282 -0.0377812
39 1 0.99964 0.124703 0.625319 0.00453515 0.00241286 -0.0047205
40 1 0.0623543 0.187403 0.687618 0.00112831 -0.00176029 -0.00174207
41 1 0.999829 0.124889 0.749967 0.000411605 -0.00197122 9.8475e-05
42 1 0.0623013 0.187446 0.812354 0.000323421 -0.00112015 -0.00187813
43 1 0.999619 0.124794 0.874603 0.00107569 6.59377e-05 0.000744839
44 1 0.0618272 0.187301 0.936909 -0.00156834 -0.00213619 -0.0141098
45 1 0.998816 0.250031 0.998814 0.015793 0.00256213 0.0175934
46 1 0.0596129 0.314763 0.0596107 0.030528 -0.0293336 0.0325934
47 1 0.998772 0.25052 0.123633 0.00289956 0.0151528 -0.0176313
48 1 0.0593283 0.314736 0.185394 0.0749423 -0.0480543 0.0444676
49 1 0.999516 0.250727 0.249822 -0.0129866 -1.90198e-05 -0.00599255
50 1 0.0609691 0.315007 0.312286 -0.0446537 0.00554024 -0.0537246
51 1 0.999736 0.250681 0.37523 0.0325851 -0.00336594 -0.0106168
52 1 0.0619615 0.313769 0.438731 -0.0192574 0.0141778 0.0121211
53 1 0.999971 0.250018 0.500147 -0.024216 -0.00960891 0.00980112
54 1 0.0612109 0.312574 0.563896 0.0611247 0.00692441 -0.068848
55 1 0.999458 0.249823 0.62548 -0.00286691 0.00331592 0.00393238
56 1 0.0622804 0.312551 0.687646 -0.00580658 -0.00198656 0.00276625
57 1 0.999783 0.249984 0.749966 -0.00166861 -0.00160244 0.000621876
58 1 0.0622283 0.312628 0.812287 -0.0019525 -6.40364e-05 -0.00257065
59 1 0.999513 0.25 0.874533 -0.00076635 -0.000991987 -0.00180231
60 1 0.0615013 0.312955 0.936592 -0.00884851 0.00765782 -0.0146441
61 1 0.998325 0.376313 0.998327 0.0134027 -0.0115324 0.0143134
62 1 0.0609772 0.439021 0.0609797 -0.0149558 0.0149558 -0.0149556
63 1 0.998086 0.376508 0.123493 0.00429079 -0.00197377 0.0054462
64 1 0.0596083 0.440386 0.185238 0.0325933 -0.0305277 0.0293336
65 1 0.998616 0.376537 0.249541 0.0100933 0.0198802 -0.00887328
66 1 0.0610557 0.439001 0.313084 0.0516066 -0.0568563 -0.00770204
67 1 0.999335 0.375821 0.375562 0.00223134 -0.00729582 -0.00990925
68 1 0.0617731 0.438329 0.437434 0.0311652 -0.032149 -0.0080298
69 1 0.999452 0.375704 0.500747 -0.00894513 0.0127042 0.00192938
70 1 0.060929 0.439176 0.564173 0.0136783 -0.0128703 -0.0133076
71 1 0.999303 0.375338 0.62565 0.00102212 -0.00178725 -0.00213131
72 1 0.0621812 0.437874 0.687728 -0.00869872 0.00807672 0.0116038
73 1 0.999716 0.375173 0.74994 -0.00368063 0.000458956 0.00139824
74 1 0.0621989 0.437825 0.812203 -0.00332103 0.00270543 -0.00285364
75 1 0.999356 0.375375 0.874363 -0.00307234 0.00203456 -0.0031813
76 1 0.0615239 0.43848 0.936312 0.000404021 -0.00116074 -0.00144963
77 1 0.998945 0.501053 0.998948 -0.00214647 0.00214649 -0.00214656
78 1 0.0615181 0.563689 0.0615264 0.00116103 0.00144942 0.000404261
79 1 0.998325 0.501673 0.123688 0.0143132 -0.0134025 0.0115323
80 1 0.0615509 0.563359 0.187083 -0.007876 0.0142795 -0.0107413
81 1 0.998812 0.501182 0.24997 0.0175931 -0.0157927 -0.00256199
82 1 0.0620039 0.562955 0.312668 -0.00337713 0.0135725 3.57092e-05
83 1 0.99909 0.500926 0.375371 0.0126753 -0.0114145 -0.00425225
84 1 0.0623349 0.562765 0.437664 -0.00487905 0.00914101 -0.00159555
85 1 0.999489 0.500594 0.500206 0.000248445 -0.00116988 0.000437155
86 1 0.0622778 0.562801 0.562747 -0.00986127 0.0116377 0.00584009
87 1 0.999236 0.500846 0.625713 0.00499806 -0.00543758 -0.00705941
88 1 0.0623018 0.56292 0.687686 6.07235e-05 0.00215596 0.000621423
89 1 0.999672 0.500369 0.749942 -0.00341416 0.00270982 0.000626928
90 1 0.0622302 0.56294 0.812144 -0.00158514 0.00188276 -0.000759624
91 1 0.999371 0.500639 0.874292 -0.000767256 0.000428024 -0.00144625
92 1 0.0617236 0.563476 0.936522 0.00375997 -0.00415809 0.00398482
93 1 0.99936 0.625709 0.999374 -0.000428033 0.00144612 -0.000767164
94 1 0.0621735 0.687798 0.0622014 -0.00270549 0.00285359 -0.003321
95 1 0.999377 0.625616 0.124665 -0.00293931 0.00358148 -0.0029972
96 1 0.0622713 0.687681 0.18741 -0.00208335 0.00269377 -0.000866085
97 1 0.999588 0.625402 0.250042 -0.00118931 0.002852 -0.000788945
98 1 0.0624342 0.687566 0.312537 -0.00059823 0.00178833 0.000275086
99 1 0.999758 0.62529 0.375176 0.000758809 -0.000213965 -0.00133655
100 1 0.0625461 0.687527 0.437505 -0.00136294 0.000274747 0.000818215
101 1 0.999896 0.625203 0.500098 -0.00211186 0.00142579 0.00021208
102 1 0.0624659 0.687522 0.56253 -0.00105681 0.000467238 -9.30325e-05
103 1 0.999821 0.625234 0.625073 -0.00297931 0.00235196 0.000463916
104 1 0.0624058 0.687602 0.687435 -7.93148e-05 0.000952299 5.62017e-05
105 1 0.99974 0.625347 0.749867 -0.000148017 0.00186556 7.54722e-05
106 1 0.0622998 0.687759 0.812195 0.0010334 0.000482372 -9.26364e-05
107 1 0.999509 0.625558 0.874432 0.00132676 -0.000855889 0.000893093
108 1 0.0621803 0.687855 0.937049 -0.00061757 0.000754094 -0.00247564
109 1 0.99963 0.750059 0.999675 -0.00270977 -0.000626959 -0.00341411
110 1 0.0621249 0.812273 0.0621837 -0.00807668 -0.0116038 -0.00869865
111 1 0.999731 0.750053 0.124911 -0.00326597 -0.00127395 -0.0016348
112 1 0.0623202 0.812353 0.187523 -0.00624768 -0.00357493 0.0015686
113 1 0.999858 0.750001 0.250077 -0.00190176 -0.000360656 0.00049938
114 1 0.0624595 0.812373 0.312604 0.000844889 0.000609626 0.00152957
115 1 0.999953 0.749971 0.37509 -0.0001761 -0.000237488 0.00148556
116 1 0.0625698 0.812423 0.437447 -0.00167536 -0.00423947 0.0015947
117 1 1.86347e-05 0.749994 0.499983 -0.00123525 -0.00152632 0.00108842
118 1 0.0623451 0.812294 0.562592 -0.000184665 0.00156502 -0.00134717
119 1 0.999889 0.749979 0.624982 -0.000214005 0.000972607 -0.000401667
120 1 0.0623552 0.812399 0.687474 0.000706641 0.000432254 0.000366679
121 1 0.999812 0.750085 0.749818 0.000478298 0.000814804 3.32475e-05
122 1 0.0623175 0.812465 0.812301 0.000952969 0.000523658 -0.000199313
123 1 0.999681 0.750096 0.874621 0.000664474 0.000247886 -0.00162039
124 1 0.0621799 0.812282 0.937058 0.00175036 -0.000794743 -0.00225536
125 1 0.999153 0.874288 0.999238 0.0054375 0.00705921 0.00499794
126 1 0.0608227 0.935828 0.0609315 0.01287 0.0133072 0.0136782
127 1 0.99933 0.874387 0.124818 0.00108788 0.00228818 -0.000217174
128 1 0.0612418 0.936153 0.187594 0.0621329 0.0695265 -0.00940747
129 1 0.999533 0.874553 0.250275 -0.00427101 -0.00473038 -0.00419269
130 1 0.0617028 0.936719 0.313101 0.0388479 0.0387774 -0.00613916
131 1 0.999729 0.874691 0.375293 0.00341063 0.00388582 -0.0017233
132 1 0.0626078 0.937525 0.437273 -0.00499219 -0.00790464 0.00493476
133 1 2.7162e-05 0.874957 0.499923 -0.00240005 -0.00231584 3.67699e-05
134 1 0.0621609 0.937161 0.562762 -0.00210202 0.00148325 -0.000808046
135 1 0.999838 0.874847 0.625036 -0.00041507 0.00099268 -0.000190977
136 1 0.0622527 0.937272 0.687612 0.000921037 0.001973 -0.00123482
137 1 0.999793 0.874878 0.749898 0.00126585 0.00158112 0.000106738
138 1 0.0622882 0.937308 0.812341 0.00113577 0.00149601 0.00101015
139 1 0.999661 0.874821 0.874686 -0.000107541 0.00122119 -0.000878004
140 1 0.0620294 0.937097 0.937081 -0.00422077 -0.000872051 -0.00746843
141 1 0.124295 0.999254 0.999455 -0.0127044 -0.00192947 -0.00894509
142 1 0.186229 0.0612696 0.061964 -0.014178 -0.0121198 -0.0192569
143 1 0.121352 0.996143 0.121503 0.0119319 -0.0309749 0.0129429
144 1 0.180871 0.0500446 0.18099 0.0550335 -0.140118 0.0434954
145 1 0.123195 0.998632 0.251353 0.0953069 0.0287447 -0.0578486
146 1 0.190709 0.0650361 0.310836 -0.160909 -0.0895058 -0.153488
147 1 0.125507 0.000304645 0.374237 0.0139847 -0.000161968 -0.00792335
148 1 0.185714 0.060536 0.439454 -0.00215798 -0.0133455 0.00723439
149 1 0.124211 0.999239 0.50072 -0.0054056 0.00397061 -0.00255596
150 1 0.186753 0.0614644 0.563301 -0.00479789 0.0215129 0.000140879
151 1 0.124579 0.999562 0.625412 0.000204727 0.00599154 -0.00447379
152 1 0.187364 0.0622826 0.687656 -0.00209684 0.00141232 0.000898257
153 1 0.124854 0.999826 0.750028 2.16086e-05 0.000932832 0.000503516
154 1 0.187388 0.0623552 0.812488 0.000841413 0.00173908 0.000645138
155 1 0.124768 0.999709 0.874782 0.00203667 0.00267543 0.00274397
156 1 0.187156 0.062106 0.937336 0.000761854 0.00154841 -0.0049325
157 1 0.124177 0.124439 0.999338 0.00729551 0.00990912 0.00223169
158 1 0.184992 0.187715 0.0609716 -0.00554048 0.0537238 -0.0446545
159 1 0.125465 0.124939 0.125771 0.0481014 -0.00578118 0.0379881
160 1 0.121807 0.125311 0.248332 0.035631 0.0244657 0.100028
161 1 0.187124 0.188929 0.310992 -0.145188 0.135284 -0.0622316
162 1 0.126702 0.12578 0.374392 -0.0587998 -0.0698237 0.0533452
163 1 0.19046 0.188946 0.435122 -0.14087 0.184287 0.0770154
164 1 0.125366 0.125677 0.499806 0.0177049 0.0159097 -0.00365377
165 1 0.187603 0.187606 0.562479 0.00409119 0.00187565 -0.00825174
166 1 0.125008 0.12498 0.625049 -0.00327851 -0.00172765 0.016256
167 1 0.18751 0.187487 0.687443 -0.00219836 9.81628e-05 0.001351
168 1 0.124942 0.124943 0.74998 0.000557665 0.000675769 0.000693358
169 1 0.187353 0.187467 0.812489 0.0005269 0.000832536 -0.000457882
170 1 0.124736 0.124821 0.874806 0.00155133 0.000593217 0.000619214
171 1 0.186937 0.187466 0.937328 -0.00430201 -0.00123863 -0.0209735
172 1 0.123461 0.25046 0.998618 -0.0198806 0.00887351 0.0100939
173 1 0.185262 0.314607 0.0593308 0.0480531 -0.0444679 0.074942
174 1 0.11978 0.254127 0.119693 0.0286452 -0.00932412 0.0877301
175 1 0.184711 0.315287 0.184714 0.0297408 -0.0297397 0.0297366
176 1 0.121656 0.252302 0.374746 0.0367408 -0.143453 0.00296284
177 1 0.180987 0.319127 0.449956 0.0434979 -0.0550359 0.140116
178 1 0.123126 0.248778 0.501424 0.0963365 0.0604684 -0.0301549
179 1 0.186932 0.313051 0.564018 -0.0243161 0.026028 -0.186442
180 1 0.124724 0.249914 0.625016 -0.0155133 -0.0174587 0.0525611
181 1 0.1874 0.312564 0.687567 0.000449917 -0.000554213 -0.0064274
182 1 0.124895 0.25 0.749946 -0.000735885 -0.000534453 0.00199263
183 1 0.187354 0.312585 0.812436 -0.00119374 0.00057835 -0.00257625
184 1 0.124627 0.250104 0.874751 -0.002639 -0.00173365 -0.00391662
185 1 0.186998 0.312913 0.937072 -0.00966408 0.00818576 -0.0249619
186 1 0.12349 0.376508 0.998089 0.00197339 -0.00544609 0.00429083
187 1 0.185235 0.44039 0.0596154 0.0293334 -0.0325932 0.0305276
188 1 0.122935 0.377063 0.122938 -0.0441216 0.0441219 -0.0441225
189 1 0.185391 0.44067 0.185265 0.0444688 -0.0749428 0.0480539
190 1 0.11969 0.380218 0.245874 0.0877254 -0.0286439 0.00932373
191 1 0.185926 0.438961 0.311594 -0.0524181 0.014669 -0.022374
192 1 0.125768 0.374534 0.375062 0.0379882 -0.0481017 0.00578198
193 1 0.186668 0.437842 0.43834 -0.0262011 0.0394496 0.0484249
194 1 0.1215 0.378647 0.503858 0.0129429 -0.0119324 0.0309739
195 1 0.187591 0.438757 0.563848 -0.0094076 -0.0621332 -0.0695268
196 1 0.124514 0.375526 0.625507 -0.0149382 0.0154399 0.00661767
197 1 0.18752 0.437678 0.687648 0.0015685 0.00624769 0.00357496
198 1 0.124852 0.375157 0.749964 -0.00179129 0.0015671 0.00117169
199 1 0.187408 0.437727 0.81232 -0.000866038 0.00208331 -0.00269372
200 1 0.124628 0.375367 0.874592 -0.00563362 0.0048693 -0.00944108
201 1 0.187081 0.438448 0.936642 -0.0107416 0.00787642 -0.01428
202 1 0.123686 0.501674 0.998328 0.0115323 -0.0143133 0.0134027
203 1 0.187043 0.563409 0.0615038 -0.00765784 0.0146438 -0.00884827
204 1 0.12349 0.501912 0.123493 0.00544681 -0.00429115 0.00197389
205 1 0.187086 0.562929 0.187 -0.00818564 0.0249615 -0.00966392
206 1 0.123631 0.501226 0.249481 -0.0176311 -0.00289891 -0.0151534
207 1 0.187277 0.562551 0.312216 -0.00748793 0.0185244 0.00611363
208 1 0.124651 0.500268 0.375175 -0.00983776 0.0332699 0.00605891
209 1 0.187405 0.56247 0.437591 -0.000703368 0.00834708 0.00287173
210 1 0.124621 0.500377 0.5005 -0.0198856 0.0128117 0.0119871
211 1 0.187586 0.562596 0.562594 0.00196685 0.0048078 0.00311724
212 1 0.124816 0.500668 0.625614 -0.000217149 -0.00108805 -0.00228838
213 1 0.187566 0.562775 0.687657 -0.000402797 0.00229709 0.000650224
214 1 0.124909 0.500267 0.749948 -0.00163482 0.00326601 0.00127395
215 1 0.187481 0.562815 0.812247 -0.000501281 0.00180216 -0.00141518
216 1 0.124663 0.500621 0.874385 -0.0029973 0.0029394 -0.00358146
217 1 0.187295 0.563287 0.936711 0.00149022 -0.00321356 0.00272036
218 1 0.124623 0.625638 0.999358 -0.00203458 0.00318107 -0.00307235
219 1 0.18737 0.687714 0.0622307 6.39666e-05 0.00257058 -0.00195256
220 1 0.124631 0.625409 0.124631 -0.0048693 0.00944086 -0.00563354
221 1 0.187414 0.687565 0.187357 -0.000578318 0.00257623 -0.00119376
222 1 0.124738 0.62518 0.249847 -0.00184524 0.00502641 0.00111552
223 1 0.187535 0.68745 0.312381 -0.000551215 0.000883534 0.000562198
224 1 0.124997 0.625014 0.374976 -0.00150388 0.00398578 0.00147813
225 1 0.187558 0.687407 0.437459 5.73979e-05 -4.52579e-05 -0.000230971
226 1 0.124995 0.625045 0.500079 -0.000391918 0.000182762 -0.000215895
227 1 0.187545 0.687429 0.562504 0.000209631 -0.000500831 -0.000321044
228 1 0.124999 0.62511 0.625042 -0.000619877 0.00182689 0.000479161
229 1 0.187509 0.687531 0.687468 0.000494214 0.000305227 -0.000146142
230 1 0.124944 0.625255 0.7499 -0.000248129 0.00180981 -0.000239248
231 1 0.187474 0.687696 0.812266 0.000694534 0.000561864 -0.000249062
232 1 0.12479 0.625485 0.874504 0.00158479 -0.000428918 0.000157072
233 1 0.18742 0.687778 0.937141 0.00113244 0.000813884 -0.0016134
234 1 0.124826 0.750061 0.999718 -0.000458936 -0.00139824 -0.00368057
235 1 0.187447 0.812355 0.0622828 0.00198659 -0.00276606 -0.00580638
236 1 0.124842 0.750037 0.124855 -0.00156711 -0.00117169 -0.00179122
237 1 0.187434 0.812434 0.187402 0.000554317 0.00642746 0.000450065
238 1 0.12498 0.750028 0.249986 -0.000811905 -0.00177154 0.000173353
239 1 0.187645 0.812554 0.312419 -0.00326315 -0.00211816 0.00085624
240 1 0.125112 0.749964 0.374943 -0.000942542 -0.000906707 0.000439677
241 1 0.187483 0.812327 0.437592 -0.00257308 -0.00201306 -0.000508731
242 1 0.125002 0.74988 0.500022 -0.00114108 -0.000341584 -0.000155782
243 1 0.187402 0.812215 0.562682 0.000820002 -0.00159547 0.000859387
244 1 0.124941 0.7499 0.625021 0.000546922 -0.000384759 0.000330171
245 1 0.187423 0.812342 0.687557 0.000562416 0.000392253 0.000187136
246 1 0.124913 0.750033 0.749876 0.000784123 0.00069928 0.000142532
247 1 0.187441 0.812455 0.812378 0.00136166 0.000397072 0.000177732
248 1 0.124867 0.750073 0.874692 0.00111474 5.85923e-05 -0.00158087
249 1 0.187457 0.812323 0.937162 0.000919074 -0.00047853 -0.00193695
250 1 0.124661 0.874351 0.999305 0.00178724 0.0021312 0.00102208
251 1 0.187424 0.936105 0.0612134 -0.00692431 0.0688478 0.0611246
252 1 0.124472 0.874494 0.124517 -0.01544 -0.00661785 -0.0149381
253 1 0.186948 0.935983 0.186934 -0.0260281 0.186443 -0.0243158
254 1 0.124807 0.875006 0.250111 -0.0166174 -0.0535389 0.0174439
255 1 0.187767 0.937572 0.312301 -0.00101688 0.00654233 -0.000403107
256 1 0.125153 0.874991 0.374932 -0.00569683 -0.0196207 0.00379661
257 1 0.186847 0.936728 0.438437 -0.00773454 -0.00157614 -0.0208979
258 1 0.124665 0.874563 0.500327 -0.00122063 0.00374671 -0.0053219
259 1 0.187242 0.936967 0.562974 -0.00429658 -0.00767211 0.00779055
260 1 0.124805 0.874721 0.625177 -0.000272712 -0.000810591 0.00117378
261 1 0.187338 0.9372 0.687719 0.00146275 -0.000154889 0.00132398
262 1 0.124857 0.874846 0.749987 0.00161634 0.000455361 0.00112142
263 1 0.187427 0.937346 0.812449 0.000827634 0.00140455 0.00184775
264 1 0.124848 0.874848 0.874781 0.00117403 0.000133245 -0.000738089
265 1 0.187424 0.937254 0.937265 0.00229553 0.000213051 -0.00112431
266 1 0.24998 0.999854 0.999974 0.00960878 -0.00980099 -0.0242156
267 1 0.312457 0.0628116 0.062952 0.0211946 -0.00275105 -0.0357716
268 1 0.251221 0.998577 0.123128 -0.0604683 0.0301548 0.0963367
269 1 0.311053 0.0648787 0.190462 -0.184286 -0.0770171 -0.140871
270 1 0.249253 0.00113925 0.249082 -0.0332 -0.191627 -0.0261041
271 1 0.315993 0.0497394 0.315818 0.0833026 -0.0858189 0.0880956
272 1 0.249001 0.997925 0.377192 0.0338041 0.0276845 -0.0511919
273 1 0.315154 0.0603745 0.439559 -0.0166827 -0.0653706 0.068098
274 1 0.250129 0.998826 0.501132 -0.00878847 0.038202 -0.0369415
275 1 0.312738 0.0611752 0.563626 0.015589 0.026216 -0.00397691
276 1 0.249858 0.999401 0.625551 0.00191556 -0.000955158 0.000802677
277 1 0.312541 0.0622642 0.687711 -0.000761827 -0.00272992 0.00351503
278 1 0.249956 0.999834 0.750104 -0.000135369 0.00102906 0.00106097
279 1 0.312446 0.0624329 0.812576 -0.00100747 0.00227985 0.00161541
280 1 0.249955 0.99987 0.874967 3.59783e-06 0.00321538 0.00257897
281 1 0.312383 0.0624416 0.93761 -0.00185643 0.00395744 -0.00279721
282 1 0.249318 0.124771 0.999738 0.00336574 0.0106168 0.0325852
283 1 0.312215 0.187508 0.0624199 -0.00923368 -0.0121403 -0.111036
284 1 0.247697 0.125255 0.121659 0.143453 -0.0029629 0.0367404
285 1 0.31107 0.189009 0.187127 -0.135287 0.0622324 -0.145186
286 1 0.25005 0.11674 0.383142 -0.0532118 0.0652267 -0.0536745
287 1 0.315815 0.184005 0.450262 0.0880952 -0.0833027 0.0858184
288 1 0.248892 0.122664 0.502092 0.038026 0.0548643 -0.0223575
289 1 0.312619 0.187245 0.564162 0.0135476 -0.0111367 -0.222258
290 1 0.24988 0.124544 0.62511 -0.0191779 -0.00946323 0.0375701
291 1 0.312491 0.187391 0.687587 -0.00178345 0.00217555 -0.00615507
292 1 0.249928 0.124901 0.750037 -0.000893167 0.00133575 0.00107102
293 1 0.312382 0.187454 0.812601 -0.000592995 0.000907213 0.000395436
294 1 0.249796 0.124911 0.875059 0.000291895 0.00292894 0.00175203
295 1 0.312227 0.187481 0.937738 0.00208407 0.000265474 -0.0198561
296 1 0.249272 0.250179 0.999518 1.89729e-05 0.00599283 -0.0129871
297 1 0.311591 0.314072 0.0610405 -0.0223724 0.0524194 -0.0146692
298 1 0.251289 0.248709 0.251292 -0.240953 0.240957 -0.240954
299 1 0.310989 0.312874 0.311072 -0.0622322 0.145187 -0.135283
300 1 0.310834 0.30929 0.434965 -0.153491 0.160907 0.0895032
301 1 0.24908 0.250745 0.498862 -0.0261034 0.0331992 0.19163
302 1 0.312299 0.312232 0.562429 -0.000403225 0.0010166 -0.00654262
303 1 0.249887 0.249997 0.624669 -0.00486019 0.00656782 0.0866021
304 1 0.312417 0.312354 0.687446 0.000856167 0.00326315 0.00211808
305 1 0.249915 0.249956 0.749988 -0.000552808 0.00144703 0.000708617
306 1 0.312378 0.312463 0.812551 0.000562188 0.000551194 -0.000883498
307 1 0.249756 0.250009 0.875033 0.000770248 0.00143911 -0.00254399
308 1 0.312214 0.312721 0.93745 0.0061138 0.0074881 -0.0185247
309 1 0.249479 0.376368 0.998775 -0.0151531 0.0176314 0.00289868
310 1 0.313081 0.438943 0.0609998 -0.00770217 -0.0516062 0.0568561
311 1 0.245871 0.380308 0.119783 0.00932405 -0.0877293 0.0286443
312 1 0.312283 0.439029 0.184994 -0.0537227 0.044654 -0.00554119
313 1 0.312491 0.437581 0.312217 0.0121402 0.111037 -0.00923289
314 1 0.248329 0.378191 0.37469 0.100028 -0.0356317 -0.0244647
315 1 0.312689 0.437016 0.437057 0.0226222 0.0369158 0.00611983
316 1 0.251351 0.376804 0.501369 -0.057849 -0.095307 -0.0287454
317 1 0.313098 0.438296 0.563282 -0.0061394 -0.0388478 -0.0387772
318 1 0.250108 0.375192 0.624995 0.0174438 0.0166174 0.0535388
319 1 0.312601 0.437539 0.687628 0.00152957 -0.000844925 -0.000609635
320 1 0.249983 0.375018 0.749973 0.000173368 0.000811966 0.00177156
321 1 0.312535 0.437564 0.812435 0.000275126 0.000598144 -0.00178829
322 1 0.249845 0.37526 0.874821 0.00111544 0.00184524 -0.00502635
323 1 0.312666 0.437995 0.937046 3.58713e-05 0.0033776 -0.0135729
324 1 0.249967 0.501187 0.998819 -0.0025621 -0.0175932 0.0157927
325 1 0.312698 0.563092 0.0618297 0.00213614 0.0141099 -0.00156839
326 1 0.249538 0.501383 0.123464 -0.00887342 -0.010094 -0.0198802
327 1 0.312533 0.562673 0.186939 0.00123884 0.0209734 -0.00430189
328 1 0.24982 0.500483 0.249274 -0.00599254 0.0129867 1.8924e-05
329 1 0.312517 0.562263 0.31223 -0.000265191 0.0198563 0.00208395
330 1 0.249689 0.500171 0.374897 -0.00078586 -0.0233235 -0.00099207
331 1 0.312542 0.56231 0.437373 -0.0013211 0.0046626 -0.00164968
332 1 0.250132 0.499885 0.499951 0.0109825 0.030324 0.0152484
333 1 0.312624 0.562516 0.562485 0.0017733 -0.00124447 -0.00269722
334 1 0.250272 0.500466 0.625448 -0.00419276 0.00427092 0.0047303
335 1 0.31268 0.562685 0.687649 -0.00139417 0.00148631 0.000583627
336 1 0.250074 0.500141 0.75 0.000499407 0.00190169 0.000360665
337 1 0.31262 0.56271 0.812326 -0.000292413 0.00114894 -0.000789637
338 1 0.250039 0.500411 0.874599 -0.000788921 0.00118927 -0.00285201
339 1 0.312663 0.563122 0.936874 -0.00180274 -0.00098645 0.00075376
340 1 0.249999 0.625468 0.999516 0.000991905 0.00180226 -0.000766364
341 1 0.312553 0.687647 0.0623038 0.00111998 0.00187807 0.000323365
342 1 0.249895 0.62525 0.124629 0.0017335 0.00391652 -0.00263887
343 1 0.312532 0.687512 0.187356 -0.000832698 0.00045786 0.000526898
344 1 0.249989 0.624968 0.249759 -0.00143901 0.00254401 0.000770282
345 1 0.312545 0.6874 0.312384 -0.000907167 -0.000395357 -0.000593089
346 1 0.250008 0.624856 0.374862 -0.000729564 -0.000916079 -0.00102284
347 1 0.312538 0.68737 0.437436 -0.000228352 -0.00093556 -0.00151873
348 1 0.250066 0.624898 0.499944 0.000763863 0.000307578 -0.00037887
349 1 0.312548 0.687381 0.562513 0.000693848 -0.00121861 -0.0012547
350 1 0.250088 0.625031 0.625027 0.00117574 0.000204673 -0.000614213
351 1 0.31257 0.687479 0.68751 0.000982448 -2.24329e-05 -0.000405817
352 1 0.250079 0.62517 0.749946 -1.06228e-05 0.00144375 -3.50017e-06
353 1 0.312593 0.687646 0.812327 0.00059404 0.000348636 2.57457e-05
354 1 0.250037 0.625383 0.874608 0.000274754 -0.000323495 0.000125392
355 1 0.312593 0.687724 0.937213 0.000836227 0.000111035 -0.000257951
356 1 0.250014 0.750035 0.999786 0.00160235 -0.000621867 -0.00166858
357 1 0.312595 0.812383 0.0623568 0.00176021 0.0017422 0.00112841
358 1 0.249998 0.750055 0.124897 0.000534444 -0.00199258 -0.000735901
359 1 0.312511 0.812558 0.187513 -9.81452e-05 -0.00135091 -0.0021982
360 1 0.250042 0.750013 0.249917 -0.00144705 -0.00070865 -0.000552743
361 1 0.312608 0.812414 0.312494 -0.00217561 0.00615517 -0.00178336
362 1 0.25006 0.749935 0.374963 -0.000969564 -0.00141025 -0.000924744
363 1 0.31261 0.812279 0.43764 -0.000696656 -0.00390176 0.00346914
364 1 0.250036 0.749835 0.500038 -1.11174e-05 -0.00127062 -0.000285686
365 1 0.31255 0.812131 0.562782 0.000366158 -0.00138121 0.000904513
366 1 0.250005 0.749844 0.625075 0.000695997 -0.000719734 -0.000110108
367 1 0.312532 0.812296 0.687637 0.000414626 -8.07358e-05 0.000465872
368 1 0.25001 0.749993 0.74994 0.00113656 0.000355199 0.000168226
369 1 0.31255 0.812446 0.812443 0.00111753 0.000619643 0.000669906
370 1 0.250027 0.75005 0.874766 0.00113321 -0.000182681 -0.00105063
371 1 0.312639 0.812355 0.937229 -0.000876082 -0.00023379 -0.000335766
372 1 0.250176 0.874521 0.999461 -0.00331594 -0.00393238 -0.0028669
373 1 0.313041 0.936672 0.0616358 -0.00582295 0.0377813 0.0373664
374 1 0.250084 0.874985 0.124727 0.0174588 -0.0525609 -0.015513
375 1 0.312392 0.937522 0.187605 -0.00187566 0.00825155 0.0040914
376 1 0.250001 0.875332 0.249889 -0.00656777 -0.0866022 -0.00485989
377 1 0.312753 0.935839 0.312622 0.0111365 0.222259 0.0135479
378 1 0.249996 0.874904 0.375339 -0.0200626 -0.038664 0.0112291
379 1 0.312792 0.936387 0.438727 0.0156372 0.00219975 -0.0233109
380 1 0.249913 0.874437 0.500502 0.00139772 -0.00181766 0.00213942
381 1 0.312691 0.936705 0.563255 -0.00197245 -0.00429659 0.00434917
382 1 0.249932 0.874623 0.625307 -0.00064794 -0.000460754 0.000595499
383 1 0.312528 0.93714 0.687828 0.000235698 -0.000496396 0.00118483
384 1 0.249965 0.874828 0.750069 0.000809439 0.000677745 0.00114386
385 1 0.312517 0.937385 0.81253 -0.000141612 0.00248863 0.00245836
386 1 0.250012 0.874889 0.874861 0.00137558 0.00129897 0.00128011
387 1 0.31257 0.937406 0.937376 0.000867672 0.00534324 0.00407197
388 1 0.374971 9.43776e-05 0.000110991 -0.00332004 0.00798455 -0.00360378
389 1 0.437291 0.0626425 0.0628622 -0.0142272 0.0189741 0.0334868
390 1 0.374321 0.000195185 0.125368 -0.0159097 0.00365404 0.0177051
391 1 0.439463 0.0605473 0.185717 0.0133451 -0.00723479 -0.00215808
392 1 0.377334 0.997909 0.248895 -0.0548656 0.022359 0.0380267
393 1 0.439624 0.0604422 0.315157 0.0653703 -0.0680981 -0.0166828
394 1 0.377679 0.996987 0.377602 -0.0354395 -0.0159506 -0.0340151
395 1 0.437996 0.0620024 0.437999 0.0131944 -0.0131946 0.0131944
396 1 0.376202 0.9984 0.501574 0.00837354 0.0202102 -0.0203178
397 1 0.438854 0.0611114 0.564004 -0.0126595 0.0129638 0.00706611
398 1 0.375344 0.999266 0.625749 0.00076036 0.000465166 0.000554989
399 1 0.437748 0.0622145 0.687883 0.00192249 -0.00205354 0.00601076
400 1 0.375056 0.999832 0.750191 -0.000534184 0.000989325 0.0015296
401 1 0.437503 0.0624476 0.812626 -0.00206054 0.0014682 0.00197082
402 1 0.374995 0.99997 0.875042 -0.00250154 0.00401831 0.00322059
403 1 0.437432 0.0624927 0.937608 -0.00391361 0.00374237 0.00209309
404 1 0.374809 0.124981 0.000226525 -0.00346384 0.00522523 0.00488012
405 1 0.437055 0.187309 0.0629845 0.00611983 -0.0226223 -0.0369161
406 1 0.374218 0.125609 0.126704 0.0698245 -0.053346 -0.0588014
407 1 0.434962 0.189165 0.190711 0.0895043 0.153489 -0.160908
408 1 0.383259 0.116859 0.250053 -0.0652272 0.0536752 -0.0532118
409 1 0.450259 0.184183 0.315996 0.0858186 -0.0880953 0.0833033
410 1 0.373233 0.126766 0.373235 0.123917 -0.123917 0.123917
411 1 0.439556 0.184844 0.439626 0.0680982 0.0166826 0.0653707
412 1 0.3776 0.12232 0.503014 -0.0340158 0.0354398 0.0159506
413 1 0.438725 0.187207 0.563614 -0.0233106 -0.0156371 -0.00219937
414 1 0.375365 0.124555 0.62535 0.017052 -0.016404 0.0273464
415 1 0.437637 0.187389 0.687722 0.00346894 0.000696616 0.00390153
416 1 0.375005 0.124907 0.750117 -0.00101207 0.00064029 0.00215295
417 1 0.437434 0.187461 0.812631 -0.00151871 0.000228315 0.000935555
418 1 0.374879 0.124981 0.875131 -0.00294077 0.00288749 0.00398226
419 1 0.43737 0.187457 0.937691 -0.00164963 0.00132099 -0.00466256
420 1 0.374895 0.250309 0.99983 -0.000991963 0.000786101 0.0233236
421 1 0.438337 0.31333 0.0621585 0.0484247 0.0262013 -0.0394502
422 1 0.374688 0.251669 0.12181 -0.0244642 -0.100029 0.0356306
423 1 0.449954 0.319011 0.180874 0.140118 -0.0434953 0.0550325
424 1 0.43512 0.309539 0.311055 0.0770167 0.140871 -0.184285
425 1 0.38314 0.249948 0.383261 -0.053675 0.0532116 -0.0652265
426 1 0.439451 0.314284 0.439465 0.00723457 0.00215794 0.0133447
427 1 0.37719 0.250998 0.502076 -0.0511917 -0.0338037 -0.0276833
428 1 0.438434 0.313151 0.563273 -0.0208977 0.00773434 0.00157618
429 1 0.375337 0.250003 0.625097 0.0112288 0.0200626 0.0386639
430 1 0.43759 0.312516 0.687674 -0.000508861 0.00257293 0.00201291
431 1 0.374961 0.249939 0.750066 -0.000924771 0.000969524 0.00141019
432 1 0.437457 0.31244 0.812594 -0.000230872 -5.74086e-05 4.52492e-05
433 1 0.37486 0.249991 0.875145 -0.0010227 0.000729598 0.000916066
434 1 0.437588 0.312593 0.937531 0.00287207 0.000703519 -0.00834727
435 1 0.375173 0.375347 0.999733 0.0060594 0.00983824 -0.03327
436 1 0.437431 0.438225 0.0616721 -0.00802933 -0.0311647 0.0321483
437 1 0.375059 0.37423 0.125467 0.00578244 -0.0379875 0.0481008
438 1 0.438729 0.438037 0.186232 0.01212 0.0192575 -0.0141779
439 1 0.374743 0.378342 0.247699 0.0029634 -0.0367398 0.143453
440 1 0.437187 0.437049 0.31246 0.00275168 0.0357719 0.0211949
441 1 0.37439 0.373297 0.374221 0.053346 0.0587998 0.0698238
442 1 0.437356 0.437139 0.437294 -0.0189736 -0.0334864 -0.0142269
443 1 0.374234 0.374492 0.499696 -0.00792403 -0.0139848 0.000161714
444 1 0.43727 0.437391 0.562476 0.00493463 0.00499214 0.00790461
445 1 0.374929 0.374845 0.62501 0.00379646 0.00569673 0.0196204
446 1 0.437445 0.437429 0.687578 0.00159463 0.00167526 0.00423936
447 1 0.374941 0.374887 0.750037 0.000439679 0.000942461 0.000906658