ITEM: TIMESTEP
0
ITEM: NUMBER OF ATOMS
1026
ITEM: BOX BOUNDS pp pp pp
0.0000000000000000e+00 2.2857118000000000e+01
0.0000000000000000e+00 2.2857118000000000e+01
0.0000000000000000e+00 2.2857118000000000e+01
ITEM: ATOMS id type xs ys zs fx fy fz
1 1 0.246373 0.246966 0.120337 0.120012 0.418436 0.0842243
2 1 0.297532 0.317597 0.174709 -0.153447 -0.0695183 0.407693
3 1 0.223447 0.128354 0.220434 0.181306 -0.31233 0.264328
4 1 0.174706 0.202466 0.182404 0.407688 0.15345 0.0695163
5 1 0.371644 0.279567 0.223449 0.312322 -0.264325 0.181308
6 1 0.253032 0.379664 0.246376 -0.418419 -0.0842354 0.120007
7 1 0.289139 0.14054 0.28874 -0.137516 0.0231342 -0.10263
8 1 0.359458 0.21126 0.289142 -0.0231335 0.102629 -0.137518
9 1 0.120334 0.253625 0.253035 0.084245 -0.120008 -0.418415
10 1 0.182401 0.325292 0.297535 0.0695276 -0.407686 -0.153455
11 1 0.288738 0.210859 0.35946 -0.102633 0.13752 -0.0231386
12 1 0.220432 0.276552 0.371647 0.264323 -0.181301 0.312318
13 1 0.999461 0.999777 0.999579 -0.00314864 -0.00157456 -0.00253217
14 1 0.0617968 0.0624584 0.0619445 0.0213764 0.0207338 0.0200621
15 1 0.999743 0.999609 0.124774 -0.0169422 -0.0146786 -0.0182175
16 1 0.062319 0.0618732 0.186936 -0.060416 -0.0724843 -0.0274052
17 1 7.81057e-05 2.43666e-05 0.25014 -0.0294803 -0.0125637 0.0100294
18 1 0.0626666 0.0627269 0.312968 -0.0195182 0.00329525 0.0177582
19 1 4.12727e-05 2.50119e-05 0.375143 -0.011359 0.00764315 -0.00116341
20 1 0.06255 0.0624605 0.437654 0.0556732 0.0230421 -0.0388142
21 1 0.999947 0.999858 0.500117 0.00973515 0.00518726 -0.00619121
22 1 0.0625091 0.0625831 0.562546 -0.00453478 -0.0017201 0.00434463
23 1 0.999921 0.999924 0.625037 -0.000309435 0.00130593 0.00130823
24 1 0.0624107 0.0624182 0.687554 9.8855e-05 -0.000154143 0.00280904
25 1 0.999846 0.999854 0.7499 -2.57903e-05 -2.11877e-05 0.00202988
26 1 0.0623068 0.0623095 0.812302 -7.72849e-05 -0.000431834 0.00103526
27 1 0.999618 0.999678 0.874595 0.00334417 0.0025989 0.00199003
28 1 0.0618953 0.061919 0.936846 0.00628088 0.00753653 -0.00119188
29 1 0.998993 0.124413 0.998977 0.0184498 0.00817771 0.0198757
30 1 0.060764 0.186478 0.0608386 0.0770536 0.0279016 0.0464722
31 1 7.46377e-05 0.125008 0.124976 -0.062548 -0.023382 -0.0202585
32 1 0.0608825 0.189111 0.186798 0.114816 0.00951579 -0.0713741
33 1 0.999693 0.124976 0.249784 0.0066811 -0.00115223 0.00121101
34 1 0.0615678 0.187184 0.312921 -0.0430997 0.0869081 0.0210259
35 1 0.999827 0.124893 0.375371 0.00340566 0.00708477 -0.00726717
36 1 0.0625184 0.187327 0.437503 -0.0165901 -0.00401326 -0.00610069
37 1 0.999904 0.124878 0.500149 -0.00392945 0.00466906 -0.012001
38 1 0.0615989 0.186911 0.563368 0.0414547 0.00410319 -0.0418264
39 1 0.999614 0.124669 0.625377 0.004786 0.00131049 -0.00594289
40 1 0.0623551 0.187405 0.687627 0.00149319 -0.00188653 -0.00247054
41 1 0.999829 0.124893 0.749985 0.000259087 -0.00166977 -0.00026995
42 1 0.0623282 0.187459 0.812381 -0.00162531 -0.00201128 -0.0041383
43 1 0.999616 0.124793 0.874593 0.000681423 -0.00141601 -0.000305411
44 1 0.0618463 0.187315 0.936953 -0.00695086 -0.0107733 -0.0301609
45 1 0.998754 0.249962 0.998664 0.0243728 0.00229713 0.0340247
46 1 0.0594677 0.314864 0.0593517 0.019415 -0.0267619 0.0103388
47 1 0.998743 0.250405 0.123525 0.0267989 0.0102638 -0.00200052
48 1 0.060037 0.313692 0.185542 -0.00516487 0.0498333 0.0482657
49 1 0.999487 0.250858 0.250357 -0.0108761 0.00626318 -0.0125129
50 1 0.0604714 0.315789 0.313025 -0.0596028 -0.0361121 -0.049
51 1 0.999394 0.250682 0.375622 0.0461838 -0.00388366 -0.0248933
52 1 0.0617002 0.313835 0.439142 -0.0119468 0.01021 -0.0190327
53 1 0.999747 0.249967 0.500383 -0.0162581 -0.007789 0.00296543
54 1 0.0613674 0.312559 0.56377 0.0499797 0.00446306 -0.0600101
55 1 0.999491 0.24986 0.625478 -0.00472573 0.000448418 0.0046753
56 1 0.062333 0.312542 0.687627 -0.00481706 -0.00204921 0.00239516
57 1 0.99981 0.249997 0.749986 -0.000880941 -0.00114871 0.000111305
58 1 0.0622885 0.312627 0.812327 -0.00229161 -0.000400091 -0.00316947
59 1 0.999563 0.250016 0.874558 -0.00288572 -0.00256017 -0.00197034
60 1 0.0615917 0.312993 0.936662 -0.0146232 0.00798438 -0.0243305
61 1 0.998319 0.376319 0.998292 0.0131769 -0.0146858 0.0153844
62 1 0.0608706 0.439128 0.0608733 -0.0121976 0.012197 -0.012197
63 1 0.99831 0.376121 0.123722 0.00156656 0.0213682 -0.00467337
64 1 0.059349 0.440531 0.185137 0.0103403 -0.0194159 0.0267631
65 1 0.998402 0.376388 0.249381 0.0485402 0.0330095 0.00742783
66 1 0.0608358 0.439234 0.313523 0.0464717 -0.0770523 -0.0278992
67 1 0.998946 0.376058 0.375965 0.0310423 -0.0173248 -0.0145478
68 1 0.0619417 0.438202 0.437543 0.0200639 -0.0213773 -0.0207336
69 1 0.99934 0.37577 0.500891 -0.0104528 0.0102018 -0.000841439
70 1 0.0611777 0.438955 0.563958 0.0107277 -0.00713417 -0.00698223
71 1 0.999404 0.375315 0.625579 -0.00304371 -0.00135062 0.00213872
72 1 0.0622547 0.437801 0.687703 -0.00665242 0.0065195 0.00913201
73 1 0.999763 0.375149 0.749956 -0.00226039 0.000715484 0.000611156
74 1 0.0622783 0.437754 0.812259 -0.00389979 0.00377475 -0.00439322
75 1 0.999427 0.37536 0.874415 -0.00441166 0.00174312 -0.00515872
76 1 0.0616961 0.438333 0.936467 -0.00565786 0.00480894 -0.00925364
77 1 0.99895 0.501049 0.998953 -0.0024771 0.00247718 -0.00247714
78 1 0.0616651 0.563534 0.0616989 -0.00480799 0.00925323 -0.00565742
79 1 0.99829 0.50168 0.123682 0.0153844 -0.0131772 0.0146859
80 1 0.0615744 0.563259 0.187156 -0.0129274 0.023933 -0.0129832
81 1 0.998662 0.501245 0.250039 0.0340231 -0.0243716 -0.00229707
82 1 0.0620259 0.562876 0.31278 -0.00560748 0.0178472 0.00217236
83 1 0.998974 0.501005 0.375588 0.0198747 -0.018449 -0.00817754
84 1 0.0624742 0.562653 0.437602 -0.00333712 0.00802476 -0.00146997
85 1 0.999577 0.500537 0.500224 -0.00253175 0.00314826 0.00157404
86 1 0.0623463 0.562749 0.562699 -0.00659321 0.00751745 0.00369965
87 1 0.999372 0.50072 0.625612 0.00244536 -0.0016446 -0.0023713
88 1 0.0623439 0.562835 0.687648 0.000557993 0.00267089 0.00106877
89 1 0.999743 0.500299 0.749957 -0.00324609 0.00295976 0.000432504
90 1 0.0622686 0.56287 0.812184 -0.00179702 0.00225882 -0.00193705
91 1 0.999471 0.500541 0.874386 -0.00285198 0.00222697 -0.00512875
92 1 0.0617612 0.563437 0.936562 0.00339665 -0.00242013 0.0017836
93 1 0.999458 0.625615 0.999474 -0.00222674 0.0051287 -0.00285172
94 1 0.0622442 0.687743 0.062281 -0.00377452 0.00439293 -0.00389946
95 1 0.999452 0.62555 0.124715 -0.00531561 0.00627861 -0.00458065
96 1 0.0623058 0.687656 0.187446 -0.00176769 0.00245099 0.000168931
97 1 0.999627 0.62536 0.250075 -0.00302827 0.00381195 -0.0004621
98 1 0.0624493 0.687546 0.312551 -4.02258e-05 0.00294118 0.000830001
99 1 0.999775 0.625273 0.375202 0.00102701 -0.000589734 0.00108947
100 1 0.0625775 0.68751 0.437476 -0.000816794 0.000487103 0.000640038
101 1 0.999959 0.625162 0.500065 -0.00218889 0.00146255 0.00128427
102 1 0.0624769 0.68752 0.562514 -0.000745982 -0.000716613 -8.77167e-05
103 1 0.999864 0.625188 0.625051 -0.00214081 0.00217937 0.00148812
104 1 0.0624098 0.687572 0.687434 0.000486642 0.000648998 -0.000278251
105 1 0.999782 0.625283 0.749878 -0.000335548 0.00186525 -2.19841e-05
106 1 0.0623079 0.687726 0.812218 0.00114457 0.000584096 -0.00125379
107 1 0.999554 0.625511 0.874477 0.000672197 -0.000716841 0.000133962
108 1 0.0622088 0.687819 0.937103 -0.000695668 0.000974425 -0.00165647
109 1 0.999699 0.750044 0.999746 -0.00295985 -0.000432651 -0.00324608
110 1 0.0621972 0.812298 0.0622575 -0.00651944 -0.00913165 -0.00665246
111 1 0.999792 0.750048 0.124938 -0.00335692 -0.000173597 -0.00098847
112 1 0.0623819 0.812389 0.187547 -0.00487187 -0.00237072 0.00149279
113 1 0.999889 0.750005 0.250073 -0.00176843 -0.000185872 0.000579894
114 1 0.0624823 0.812393 0.312593 0.00174982 0.00247126 0.0019329
115 1 0.999966 0.749975 0.375081 0.00033236 0.000146513 0.00178143
116 1 0.0625984 0.812453 0.437414 -0.00118787 -0.00471977 0.00150855
117 1 4.59421e-05 0.749993 0.499963 -0.00131381 -0.00115761 0.00113637
118 1 0.0623612 0.8123 0.562576 -2.23925e-05 0.00163512 -0.00144344
119 1 0.999904 0.749965 0.624978 7.50271e-05 0.000385591 -0.000285113
120 1 0.0623656 0.812384 0.687462 -0.000127187 -0.000275832 0.000298544
121 1 0.999821 0.750051 0.74983 0.000656259 0.000662839 -0.00069156
122 1 0.0623127 0.812423 0.812302 0.00129554 0.000637348 -1.51767e-05
123 1 0.999708 0.750074 0.874674 0.000532934 2.51567e-05 -0.00155224
124 1 0.062208 0.812291 0.937123 0.00141313 -0.00080771 -0.00224626
125 1 0.999278 0.874389 0.999375 0.00164434 0.002371 0.00244513
126 1 0.0610429 0.936044 0.0611805 0.00713374 0.00698174 0.0107277
127 1 0.999459 0.874494 0.124872 -0.00109173 -0.000287645 0.000574483
128 1 0.0614432 0.936346 0.187663 0.0550615 0.062824 -0.0058355
129 1 0.999594 0.874605 0.250232 -0.00510661 -0.00574551 -0.00189473
130 1 0.0617178 0.936743 0.313097 0.0467539 0.0477472 -0.00276602
131 1 0.999737 0.874687 0.375284 0.00395117 0.00524958 0.0001547
132 1 0.0626726 0.93757 0.437234 -0.00436394 -0.00603991 0.00500658
133 1 4.24226e-05 0.874951 0.49992 -0.00154829 -0.00129932 9.04938e-05
134 1 0.0622117 0.937181 0.562725 -0.00253991 -0.00101426 0.00207391
135 1 0.99986 0.874839 0.62503 -0.00103202 -0.000252067 0.000227268
136 1 0.0622584 0.937244 0.687606 0.000610733 0.00150916 -0.00152099
137 1 0.999791 0.874837 0.749895 0.000843641 0.000868393 -0.000469239
138 1 0.0622717 0.937247 0.812298 0.000762325 0.000918736 0.00154417
139 1 0.999656 0.874778 0.87469 -0.000337114 0.00144047 -0.000235039
140 1 0.0619944 0.937029 0.937031 -0.00203281 0.00130156 -0.00394193
141 1 0.124228 0.99911 0.999343 -0.0102014 0.000842074 -0.0104521
142 1 0.186163 0.0608595 0.061703 -0.0102093 0.0190346 -0.0119469
143 1 0.121807 0.996609 0.122011 -0.00511181 -0.0633163 0.00302481
144 1 0.181795 0.0500794 0.182076 -0.00364728 -0.156459 -0.0354963
145 1 0.123379 0.998872 0.25148 0.0785193 -0.00181575 -0.0369936
146 1 0.19119 0.0656244 0.309948 -0.204106 -0.126563 -0.0268808
147 1 0.125703 0.000551185 0.374079 -0.000145449 -0.0163616 0.00975215
148 1 0.185845 0.0607077 0.439242 -0.00531703 -0.0250379 0.0016552
149 1 0.124311 0.999315 0.500616 -0.00793449 -0.00240394 0.00526063
150 1 0.186774 0.0614483 0.563298 -0.00486677 0.025777 -0.00636297
151 1 0.124593 0.999545 0.625411 0.000264463 0.00589756 -0.00549186
152 1 0.187363 0.0622749 0.687644 -0.00164846 0.000591766 0.000312713
153 1 0.124852 0.999788 0.749999 -0.000448192 0.0010297 0.000763472
154 1 0.18738 0.0622977 0.812432 0.00077646 0.000940306 -6.16245e-05
155 1 0.124738 0.999602 0.874675 0.00214563 0.00171766 0.00334525
156 1 0.187139 0.0618755 0.937148 0.000553074 0.00143653 -0.00775622
157 1 0.12394 0.124036 0.998949 0.0173252 0.0145475 0.0310441
158 1 0.184209 0.186976 0.0604741 0.0361122 0.0489974 -0.0596003
159 1 0.125673 0.124581 0.126162 0.0384721 0.0696321 0.0423766
160 1 0.1216 0.12498 0.249005 0.0432953 0.0928851 0.0333998
161 1 0.186772 0.187946 0.310975 -0.0844846 0.249368 -0.0200692
162 1 0.126245 0.12559 0.374844 -0.0273357 -0.0821787 -0.000178842
163 1 0.190403 0.189074 0.43472 -0.142816 0.148374 0.105345
164 1 0.125398 0.125631 0.499748 0.00800939 0.0140712 0.00423746
165 1 0.18759 0.187482 0.562452 -0.00179667 0.00243839 -0.0075357
166 1 0.124992 0.124948 0.625047 -0.00348282 -0.00231588 0.0177048
167 1 0.187501 0.18746 0.687443 -0.0011555 -0.000410484 0.000396411
168 1 0.124929 0.124927 0.749973 0.000606545 4.84037e-05 0.000548007
169 1 0.187362 0.187424 0.812478 -0.000161508 0.000342115 -0.00060192
170 1 0.124699 0.12475 0.874748 -0.00058346 -0.00168211 -0.000681246
171 1 0.186896 0.187254 0.937255 -0.00658207 -0.00113081 -0.0316342
172 1 0.123611 0.25062 0.998405 -0.0330106 -0.00742817 0.0485442
173 1 0.186307 0.314459 0.0600398 -0.0498372 -0.0482684 -0.00516589
174 1 0.119269 0.254192 0.117824 0.0277108 -0.00926707 0.30753
175 1 0.184044 0.315954 0.184047 0.072686 -0.0726801 0.0726727
176 1 0.120703 0.252372 0.375003 0.0248972 -0.160941 -0.0190004
177 1 0.182073 0.318203 0.449922 -0.0354895 0.00364152 0.156457
178 1 0.123158 0.248654 0.501305 0.092385 0.0508015 -0.0202681
179 1 0.187074 0.312873 0.563982 -0.0228174 0.0224455 -0.194382
180 1 0.124755 0.249862 0.624973 -0.0164466 -0.0168471 0.0546658
181 1 0.187428 0.312525 0.687553 0.0019353 -0.00146732 -0.00819941
182 1 0.124918 0.249996 0.749958 -0.000190738 -0.00122807 0.00163789
183 1 0.187417 0.312554 0.812479 -0.00198064 0.00120798 -0.00519731
184 1 0.124702 0.250107 0.87478 -0.00456986 -0.00224026 -0.00273936
185 1 0.187191 0.31286 0.93725 -0.00576941 0.00843801 -0.0499152
186 1 0.123878 0.376279 0.998313 -0.0213686 0.00467269 0.00156807
187 1 0.185134 0.440649 0.0594705 0.0267613 -0.0103382 0.0194142
188 1 0.122509 0.377489 0.122512 0.00463216 -0.00463094 0.00462796
189 1 0.185539 0.439961 0.18631 0.0482679 0.00515183 -0.0498208
190 1 0.117821 0.380729 0.245809 0.307518 -0.0277094 0.00926472
191 1 0.186795 0.439116 0.31089 -0.0713752 -0.114804 -0.00951581
192 1 0.126159 0.374326 0.37542 0.0423792 -0.0384739 -0.069628
193 1 0.186934 0.437679 0.438128 -0.0274058 0.0604132 0.0724831
194 1 0.122008 0.378192 0.503392 0.00302405 0.00511142 0.0633151
195 1 0.18766 0.438555 0.563655 -0.00583586 -0.0550621 -0.0628248
196 1 0.124617 0.375433 0.62539 -0.0150568 0.0157522 0.0159292
197 1 0.187545 0.437616 0.687613 0.00149295 0.00487186 0.00237069
198 1 0.124908 0.375112 0.749975 -0.00159092 0.00172644 0.000642447
199 1 0.187443 0.437692 0.812346 0.000168979 0.00176796 -0.00245088
200 1 0.12476 0.375305 0.874679 -0.00649457 0.00416062 -0.0107174
201 1 0.187153 0.438424 0.936742 -0.0129835 0.0129281 -0.0239336
202 1 0.12368 0.501709 0.998321 0.0146863 -0.0153845 0.0131774
203 1 0.187005 0.563339 0.0615944 -0.00798436 0.0243306 -0.0146238
204 1 0.123719 0.501688 0.12388 -0.00467184 -0.00156812 -0.021368
205 1 0.187139 0.562752 0.187194 -0.00843804 0.0499134 -0.00576887
206 1 0.123522 0.501255 0.249596 -0.00199963 -0.0267982 -0.0102647
207 1 0.187436 0.562539 0.312184 -0.00778318 0.0115264 0.00135997
208 1 0.124973 0.499924 0.374993 -0.0202585 0.0625474 0.0233816
209 1 0.187412 0.562479 0.437581 0.000193665 0.0060962 0.00133041
210 1 0.124771 0.500255 0.500392 -0.0182174 0.0169417 0.0146785
211 1 0.187576 0.562588 0.562586 0.00200975 0.00245668 0.00149466
212 1 0.12487 0.50054 0.625507 0.000574621 0.00109153 0.00028725
213 1 0.187547 0.56272 0.687629 0.000224755 0.00258355 0.00131415
214 1 0.124936 0.500206 0.749953 -0.000988555 0.00335686 0.000173417
215 1 0.18748 0.56277 0.812267 0.000700372 0.0017329 -0.00193962
216 1 0.124712 0.500546 0.874451 -0.00458078 0.00531604 -0.00627882
217 1 0.187296 0.563296 0.936716 0.00298846 -0.00271783 0.00139613
218 1 0.124638 0.625586 0.99943 -0.00174291 0.0051589 -0.00441149
219 1 0.187371 0.687674 0.0622913 0.000400344 0.00316949 -0.00229123
220 1 0.124693 0.625322 0.124763 -0.00416036 0.0107172 -0.00649449
221 1 0.187444 0.687522 0.18742 -0.00120798 0.00519726 -0.00198053
222 1 0.124752 0.625146 0.249908 -0.000965373 0.00194289 -0.000539954
223 1 0.18757 0.687436 0.312381 -0.000293939 0.0022394 0.000312835
224 1 0.125051 0.624953 0.374941 -0.00171362 0.00656569 0.00333974
225 1 0.187555 0.687419 0.437451 -8.51713e-05 -0.000123638 -0.00119426
226 1 0.125005 0.625042 0.500064 5.63902e-05 -0.0013907 -0.00131699
227 1 0.187529 0.687444 0.562505 0.000380494 -0.000797214 -0.00035304
228 1 0.124995 0.625086 0.625028 3.79378e-05 0.00164117 0.0013094
229 1 0.187491 0.687515 0.687465 0.00085394 0.000128771 -0.000403707
230 1 0.124938 0.625209 0.7499 0.000357143 0.00138885 -0.000315649
231 1 0.187462 0.687673 0.812267 0.00100657 9.21655e-06 -0.000420356
232 1 0.124795 0.625458 0.874522 0.00172417 -0.000207944 -0.000222375
233 1 0.187419 0.68775 0.937168 0.000553862 0.00124396 -0.00107956
234 1 0.12485 0.750045 0.999766 -0.000715475 -0.000611216 -0.00226037
235 1 0.187456 0.812375 0.0623358 0.002049 -0.00239548 -0.00481729
236 1 0.124886 0.750026 0.124911 -0.00172635 -0.00064233 -0.00159085
237 1 0.187473 0.812448 0.187431 0.00146697 0.00819943 0.00193523
238 1 0.125003 0.750031 0.250001 -0.000120911 -0.00256467 0.000789651
239 1 0.187662 0.812576 0.312411 -0.00211683 -0.00119567 0.0014379
240 1 0.125125 0.749971 0.374922 -0.000404592 -0.000888537 0.000472849
241 1 0.187483 0.812357 0.437554 -0.00171688 -0.0011152 -0.000591401
242 1 0.125008 0.749893 0.500001 -0.00153147 4.24549e-05 -0.000572108
243 1 0.187406 0.812237 0.562654 0.000786046 -0.00175422 0.00103112
244 1 0.124942 0.749898 0.625009 0.000205374 -0.000303204 0.000541408
245 1 0.187424 0.812335 0.687532 0.000198173 -0.000289927 6.33896e-05
246 1 0.124907 0.750009 0.749872 0.000681195 1.77156e-05 -0.000421518
247 1 0.18744 0.81241 0.812358 0.000799517 0.000643137 0.000121177
248 1 0.124867 0.75005 0.874717 0.000942685 0.000323754 -0.00118289
249 1 0.187444 0.812314 0.93719 0.000752572 -0.000734167 -0.00169049
250 1 0.124683 0.874422 0.999407 0.00135055 -0.00213911 -0.0030441
251 1 0.18744 0.936231 0.0613702 -0.00446317 0.0600093 0.0499789
252 1 0.124566 0.874611 0.12462 -0.0157524 -0.0159299 -0.0150567
253 1 0.187125 0.936019 0.187077 -0.0224444 0.194384 -0.0228166
254 1 0.124875 0.875084 0.25015 -0.0164157 -0.0559884 0.0174047
255 1 0.187887 0.937721 0.312277 -0.00721983 -0.000361028 -0.00131464
256 1 0.125202 0.875086 0.374878 -0.00601585 -0.023744 0.00536578
257 1 0.186896 0.936774 0.438388 -0.00963068 0.00799261 -0.0299679
258 1 0.12469 0.874586 0.500294 -0.00133856 0.00529709 -0.0057222
259 1 0.187272 0.937022 0.56291 -0.00442398 -0.00795803 0.00765911
260 1 0.124824 0.874734 0.625147 -0.00045994 -0.0016215 0.00104135
261 1 0.18735 0.937187 0.687694 0.00085851 -0.000689917 0.000879232
262 1 0.124862 0.874807 0.749964 0.000676413 2.37514e-05 0.000382966
263 1 0.18743 0.937276 0.812387 0.000233359 0.000909217 0.00152794
264 1 0.124837 0.874785 0.87475 0.000700521 0.000477762 -0.000117838
265 1 0.1874 0.937148 0.937179 0.0030255 0.000944877 -0.000428416
266 1 0.250031 0.999618 0.99975 0.00778886 -0.00296511 -0.0162573
267 1 0.312671 0.0624983 0.0625211 0.00401147 0.00610234 -0.0165877
268 1 0.251344 0.998696 0.123161 -0.0508008 0.0202676 0.092385
269 1 0.310924 0.0652808 0.190406 -0.148369 -0.105351 -0.142817
270 1 0.249837 0.000994757 0.249296 -0.0595802 -0.10279 -0.0489132
271 1 0.316256 0.0503384 0.315804 0.075995 -0.0653825 0.0900504
272 1 0.249084 0.998074 0.377007 0.0251199 0.0400054 -0.0545431
273 1 0.315155 0.0605643 0.439292 -0.0125817 -0.0713825 0.0773459
274 1 0.250144 0.998969 0.500961 -0.00800045 0.0315669 -0.0283759
275 1 0.312717 0.0612004 0.563556 0.0134098 0.0255324 -0.000928895
276 1 0.249868 0.999412 0.625521 0.00159467 -0.000792463 0.000882037
277 1 0.312543 0.0622609 0.687678 -0.000946682 -0.00348174 0.00385325
278 1 0.249967 0.999803 0.750058 -0.000411851 0.000166123 0.000936146
279 1 0.312483 0.0623678 0.812494 -0.000884621 0.00136621 0.00206219
280 1 0.249985 0.999737 0.874836 -0.00108323 0.00322501 0.0034286
281 1 0.312491 0.0622147 0.937386 -0.00430489 0.00641816 -0.00199734
282 1 0.249316 0.124379 0.999396 0.00388302 0.0248933 0.0461853
283 1 0.312814 0.18708 0.0615705 -0.0869121 -0.0210281 -0.043098
284 1 0.247627 0.124998 0.120705 0.160939 0.0190043 0.0248956
285 1 0.312052 0.189026 0.186774 -0.249369 0.0200719 -0.0844725
286 1 0.250084 0.116838 0.382611 -0.0508843 0.0743065 -0.0402552
287 1 0.315802 0.183742 0.449663 0.0900524 -0.0759985 0.065385
288 1 0.248894 0.122656 0.50193 0.0325344 0.0585671 -0.0219438
289 1 0.312685 0.187101 0.56411 0.00515106 -0.00627216 -0.205279
290 1 0.249882 0.12454 0.625077 -0.01866 -0.0128429 0.0423602
291 1 0.312499 0.187366 0.687589 -0.00129325 0.00144249 -0.00780744
292 1 0.249931 0.124877 0.750011 -0.000570473 0.00022279 0.00146868
293 1 0.312404 0.187411 0.812571 -0.000756296 0.000740844 3.17663e-05
294 1 0.249823 0.124787 0.874958 -0.000813688 0.00366268 0.00354531
295 1 0.312322 0.187314 0.937574 0.00117316 -0.00208816 -0.0175131
296 1 0.24914 0.249644 0.99949 -0.00626394 0.0125134 -0.0108777
297 1 0.310887 0.313203 0.0608853 -0.00951581 0.0713738 0.114814
298 1 0.250915 0.249084 0.250917 -0.222295 0.222299 -0.222295
299 1 0.310972 0.313227 0.312055 -0.020076 0.084479 -0.249367
300 1 0.309946 0.308808 0.434377 -0.0268949 0.204101 0.126554
301 1 0.249293 0.250161 0.499006 -0.0489112 0.0595784 0.102802
302 1 0.312275 0.312112 0.56228 -0.00131428 0.0072193 0.000360986
303 1 0.249923 0.249908 0.624668 -0.00388509 0.0041828 0.0861426
304 1 0.312408 0.312336 0.687425 0.00143788 0.00211696 0.00119582
305 1 0.249922 0.24993 0.749987 -0.000157405 0.000530217 0.000829427
306 1 0.312379 0.312428 0.812565 0.000312837 0.000293936 -0.00223936
307 1 0.249762 0.249918 0.875047 -7.57727e-05 -0.000311386 -0.00455147
308 1 0.312182 0.312562 0.937462 0.00135954 0.0077835 -0.0115266
309 1 0.249593 0.376476 0.998746 -0.0102641 0.00199827 0.0268001
310 1 0.31352 0.439163 0.0607668 -0.0279002 -0.0464704 0.0770522
311 1 0.245806 0.382178 0.119272 0.00926705 -0.307534 0.027709
312 1 0.313022 0.439527 0.184212 -0.0489953 0.0596017 0.0361104
313 1 0.312918 0.438431 0.312817 0.0210279 0.0430989 -0.0869106
314 1 0.249002 0.378399 0.375021 0.0334044 -0.0432965 -0.0928799
315 1 0.312965 0.437332 0.437274 0.0177586 0.0195201 -0.00329506
316 1 0.251477 0.376619 0.501129 -0.0369957 -0.0785209 0.00181244
317 1 0.313094 0.43828 0.563258 -0.00276609 -0.0467529 -0.0477465
318 1 0.250147 0.375123 0.624917 0.0174046 0.0164158 0.0559881
319 1 0.31259 0.437516 0.687608 0.00193278 -0.00174999 -0.00247124
320 1 0.249998 0.374995 0.74997 0.000789512 0.000120907 0.00256481
321 1 0.312548 0.437549 0.812455 0.000830024 4.04335e-05 -0.00294121
322 1 0.249905 0.375246 0.874855 -0.000540046 0.000965709 -0.00194311
323 1 0.312777 0.437972 0.937125 0.00217263 0.00560803 -0.0178483
324 1 0.250036 0.501337 0.998756 -0.00229749 -0.0340249 0.0243734
325 1 0.312684 0.563048 0.061849 0.0107725 0.0301613 -0.00695085
326 1 0.249378 0.501596 0.123613 0.00742727 -0.0485448 -0.0330108
327 1 0.312745 0.562746 0.186899 0.00113045 0.0316337 -0.0065814
328 1 0.250354 0.500511 0.249143 -0.0125116 0.0108793 -0.00626397
329 1 0.312684 0.562427 0.312325 0.00208741 0.0175126 0.00117334
330 1 0.249781 0.500305 0.375025 0.00121027 -0.00668287 0.0011512
331 1 0.312603 0.562455 0.437494 -0.00143916 0.00286461 -0.00233855
332 1 0.250137 0.49992 0.499977 0.0100297 0.0294807 0.0125637
333 1 0.31261 0.562549 0.56253 0.00219721 -0.000356007 -0.00318298
334 1 0.250229 0.500404 0.625396 -0.00189494 0.00510625 0.00574531
335 1 0.312651 0.562661 0.687635 -0.000997665 0.00134213 0.000866155
336 1 0.25007 0.500109 0.749997 0.000579888 0.00176861 0.000185917
337 1 0.312613 0.562689 0.812328 0.000505671 0.000965062 -0.000562045
338 1 0.250072 0.500371 0.874641 -0.000462036 0.00302862 -0.00381226
339 1 0.312709 0.563146 0.936851 -0.00187069 0.000350478 0.000990651
340 1 0.249982 0.625443 0.999566 0.00256034 0.0019703 -0.00288552
341 1 0.312539 0.68762 0.062331 0.00201137 0.00413833 -0.00162503
342 1 0.249891 0.625221 0.124705 0.00224058 0.00273892 -0.00456974
343 1 0.312574 0.687523 0.187364 -0.000341757 0.000602118 -0.000161295
344 1 0.250081 0.624954 0.249765 0.000311205 0.00455139 -7.56259e-05
345 1 0.312587 0.68743 0.312407 -0.000740918 -3.1637e-05 -0.000756114
346 1 0.250049 0.624901 0.374898 -0.000595916 -0.00108111 -0.000867468
347 1 0.312546 0.687425 0.437471 -0.000313552 -0.0020922 -0.00144629
348 1 0.250045 0.624938 0.499977 0.0016706 -0.000339105 -0.00173573
349 1 0.312534 0.687411 0.562531 0.000249342 -0.000315438 -0.000713027
350 1 0.250064 0.625031 0.625034 0.00112785 0.000164629 -0.000434042
351 1 0.312556 0.687477 0.687506 0.000771983 -0.00030932 -0.000437481
352 1 0.250055 0.625142 0.74994 0.000665588 0.000851565 -0.000215036
353 1 0.312586 0.68763 0.812313 2.82692e-05 0.000153212 9.49729e-05
354 1 0.250032 0.625369 0.874608 0.000990569 -0.000373521 -0.000132954
355 1 0.312576 0.687705 0.93722 0.00162407 0.000622432 -0.000185828
356 1 0.250001 0.750015 0.999812 0.00114884 -0.000111208 -0.000881014
357 1 0.312594 0.812374 0.0623578 0.00188663 0.00247052 0.00149319
358 1 0.250002 0.750044 0.124921 0.00122798 -0.00163795 -0.000190694
359 1 0.312538 0.812558 0.187503 0.000410314 -0.000396458 -0.00115562
360 1 0.250068 0.750014 0.249925 -0.000530323 -0.00082926 -0.000157509
361 1 0.312633 0.812412 0.312502 -0.00144254 0.00780803 -0.00129329
362 1 0.250063 0.749954 0.374956 -0.000506992 -0.00168471 -7.09298e-05
363 1 0.312587 0.812319 0.437625 -0.000111689 -0.00460667 0.00314865
364 1 0.25002 0.749858 0.500027 7.70316e-05 -0.000205022 0.000529059
365 1 0.312534 0.812166 0.562754 0.000190815 -0.00157923 0.000858923
366 1 0.249994 0.749854 0.625063 0.000323009 -0.000790839 -8.12527e-05
367 1 0.31253 0.812298 0.6876 0.000199243 -0.000411179 0.000484582
368 1 0.250005 0.749973 0.749923 0.000642262 0.000122647 -0.000439142
369 1 0.312557 0.812404 0.812406 0.00058664 0.000551136 0.00073698
370 1 0.250018 0.750025 0.874766 0.000584497 8.63399e-05 -0.000321679
371 1 0.312625 0.812324 0.937233 -0.000564101 0.000201682 -0.000823938
372 1 0.250138 0.874523 0.999494 -0.000448023 -0.00467516 -0.00472542
373 1 0.313088 0.936633 0.0616016 -0.00410332 0.041827 0.0414553
374 1 0.250136 0.875028 0.124758 0.0168467 -0.0546659 -0.0164467
375 1 0.312516 0.937549 0.187592 -0.00243895 0.00753565 -0.00179715
376 1 0.25009 0.875333 0.249926 -0.00418261 -0.0861429 -0.00388496
377 1 0.312897 0.935891 0.312688 0.00627207 0.205282 0.00515078
378 1 0.250007 0.874965 0.375285 -0.0184002 -0.0437382 0.0140647
379 1 0.312765 0.936497 0.438635 0.0159072 -0.00504952 -0.0191632
380 1 0.249912 0.874488 0.50045 0.00240247 -0.00271673 0.00242629
381 1 0.312653 0.936776 0.563176 -0.00132545 -0.00563323 0.00518763
382 1 0.249929 0.874647 0.625263 -0.000390682 -0.00133792 0.000745004
383 1 0.312536 0.937136 0.687782 -0.000247502 -0.000403161 0.00102174
384 1 0.249976 0.874793 0.750027 0.000110979 0.000314961 0.00117002
385 1 0.312548 0.937314 0.812452 -0.000609549 0.00131826 0.00210262
386 1 0.250017 0.874814 0.874811 0.000792532 0.0014345 0.00117203
387 1 0.312619 0.93726 0.937262 0.000718823 0.00552763 0.00319403
388 1 0.37512 0.999852 0.999907 -0.00466935 0.0120015 -0.00392912
389 1 0.437538 0.0623474 0.0625528 -0.0230434 0.0388146 0.0556736
390 1 0.374367 0.000252585 0.1254 -0.0140707 -0.0042374 0.00800962
391 1 0.439291 0.0607588 0.185848 0.0250383 -0.00165651 -0.00531804
392 1 0.377343 0.998071 0.248897 -0.0585687 0.021946 0.0325353
393 1 0.439434 0.0607091 0.315158 0.0713815 -0.0773451 -0.0125821
394 1 0.377594 0.997046 0.37746 -0.0263944 0.00178857 -0.024622
395 1 0.437738 0.0622599 0.437741 0.0248768 -0.0248768 0.0248765
396 1 0.376131 0.998481 0.501485 0.0109346 0.0263568 -0.0272199
397 1 0.438769 0.0611921 0.563885 -0.00968434 0.00989946 0.01087
398 1 0.375334 0.999296 0.625693 8.87128e-05 0.000497418 0.000549562
399 1 0.437756 0.0622193 0.687843 0.00182829 -0.00255763 0.00566444
400 1 0.37508 0.999807 0.750126 -0.000194719 -0.000429532 0.00175423
401 1 0.437569 0.0623933 0.81254 -0.0020566 0.00146991 0.0020247
402 1 0.375082 0.999841 0.874905 -0.00361824 0.00350656 0.00410758
403 1 0.43763 0.0623036 0.937392 -0.00677747 0.00540668 0.00441965
404 1 0.375106 0.12463 0.999829 -0.00708434 0.0072666 0.00340549
405 1 0.437271 0.187033 0.0626694 -0.00329521 -0.0177583 -0.0195193
406 1 0.374408 0.125158 0.126248 0.0821821 0.00017553 -0.0273431
407 1 0.434374 0.190053 0.191193 0.126561 0.0268812 -0.204105
408 1 0.38316 0.11739 0.250086 -0.0743078 0.0402553 -0.0508849
409 1 0.44966 0.184197 0.316259 0.0653821 -0.0900485 0.0759962
410 1 0.372586 0.127413 0.372588 0.169049 -0.16905 0.169053
411 1 0.439289 0.184843 0.439437 0.0773467 0.0125819 0.0713815
412 1 0.377457 0.122404 0.502955 -0.0246231 0.0263956 -0.00179014
413 1 0.438632 0.187233 0.563504 -0.0191621 -0.0159072 0.0050503
414 1 0.375373 0.124546 0.625349 0.0165015 -0.0173245 0.027083
415 1 0.437623 0.187411 0.687683 0.00314855 0.000111737 0.00460669
416 1 0.375029 0.124889 0.750085 -0.000407683 0.000114596 0.0016094
417 1 0.437468 0.187452 0.812576 -0.00144643 0.000313445 0.00209215
418 1 0.374971 0.124881 0.875008 -0.00217579 0.0024493 0.00424697
419 1 0.437491 0.187395 0.937546 -0.00233865 0.00143927 -0.00286432
420 1 0.375022 0.250217 0.999696 0.00115118 -0.00120987 0.00668308
421 1 0.438125 0.313065 0.0623217 0.0724829 0.027405 -0.0604154
422 1 0.375019 0.250996 0.121602 -0.0928811 -0.0334041 0.043294
423 1 0.449919 0.317925 0.181798 0.156462 0.0354977 -0.00365147
424 1 0.434717 0.309595 0.310927 0.105351 0.142818 -0.148366
425 1 0.382609 0.249915 0.383163 -0.0402593 0.050885 -0.0743085
426 1 0.43924 0.314153 0.439293 0.00165835 0.00531716 0.0250366
427 1 0.377004 0.250914 0.501927 -0.0545429 -0.0251187 -0.0400047
428 1 0.438385 0.313103 0.563227 -0.0299665 0.00963073 -0.00799086
429 1 0.375283 0.249991 0.625036 0.014064 0.0184003 0.0437373
430 1 0.437552 0.312515 0.687644 -0.000591372 0.00171689 0.00111513
431 1 0.374953 0.249935 0.750047 -7.09384e-05 0.000506946 0.00168446
432 1 0.437448 0.312443 0.812582 -0.00119447 8.51296e-05 0.000123647
433 1 0.374896 0.249949 0.8751 -0.000867742 0.000595688 0.001081
434 1 0.437578 0.312587 0.937522 0.00133012 -0.000193871 -0.00609601
435 1 0.374991 0.375025 7.74316e-05 0.0233821 0.020258 -0.0625468
436 1 0.43754 0.438057 0.0617996 -0.0207339 -0.0200626 0.0213764
437 1 0.375417 0.373839 0.125676 -0.0696293 -0.0423767 0.0384697
438 1 0.439139 0.438298 0.186166 -0.0190368 0.0119465 -0.0102099
439 1 0.375 0.379296 0.24763 -0.0189995 -0.0248951 0.160941
440 1 0.4375 0.43748 0.312674 -0.00610295 0.0165881 0.00401192
441 1 0.374841 0.373753 0.374411 -0.000174304 0.0273399 0.0821797
442 1 0.437651 0.437448 0.437541 -0.0388137 -0.0556732 -0.0230435
443 1 0.374077 0.374295 0.49945 0.00974971 0.000144353 0.0163604
444 1 0.437232 0.437326 0.562431 0.00500645 0.00436404 0.0060398
445 1 0.374875 0.374796 0.624915 0.00536569 0.00601601 0.0237437
446 1 0.437411 0.4374 0.687548 0.00150853 0.00118781 0.00471955
447 1 0.374919 0.374874 0.75003 0.000472779 0.000404668 0.000888516