ITEM: TIMESTEP
0
ITEM: NUMBER OF ATOMS
1026
ITEM: BOX BOUNDS pp pp pp
0.0000000000000000e+00 2.2857118000000000e+01
0.0000000000000000e+00 2.2857118000000000e+01
0.0000000000000000e+00 2.2857118000000000e+01
ITEM: ATOMS id type xs ys zs fx fy fz
1 1 0.218152 0.216004 0.138966 0.0335604 0.106935 0.148558
2 1 0.284824 0.287487 0.145054 -0.0492702 -0.185658 0.0774374
3 1 0.217614 0.14244 0.213063 0.00720289 0.106904 0.181473
4 1 0.145051 0.215175 0.212514 0.0774389 0.0492724 0.185657
5 1 0.357558 0.286938 0.217617 -0.106903 -0.181473 0.0072024
6 1 0.283995 0.361035 0.218155 -0.106934 -0.14856 0.0335593
7 1 0.285267 0.142165 0.28393 -0.147888 0.117415 -0.0697461
8 1 0.357834 0.216071 0.28527 -0.117415 0.0697461 -0.147889
9 1 0.138963 0.281846 0.283997 0.148558 -0.0335596 -0.106936
10 1 0.212511 0.354948 0.284826 0.185659 -0.0774377 -0.0492715
11 1 0.283927 0.214731 0.357837 -0.0697461 0.147888 -0.117415
12 1 0.213061 0.282384 0.357561 0.181473 -0.00720277 -0.106904
13 1 0.999984 6.35347e-05 6.20494e-05 0.00319741 -0.00127936 -0.00481696
14 1 0.0634917 0.0635109 0.0633647 -0.0807833 -0.0906317 -0.0985031
15 1 0.999125 0.999028 0.124357 0.0793445 0.081215 -0.0115686
16 1 0.0623125 0.0621142 0.185093 -0.103057 -0.110552 -0.00937047
17 1 0.999907 0.999823 0.249779 0.0077854 0.0161531 -0.00464519
18 1 0.0616375 0.0617203 0.313598 0.0491535 0.0092126 -0.0168425
19 1 0.9998 0.999753 0.375291 -0.0263825 -0.0226335 0.00861552
20 1 0.0616827 0.0617368 0.438381 0.10239 0.0752965 -0.105783
21 1 0.999621 0.999545 0.50041 0.00882172 0.00539033 -0.00907182
22 1 0.0626302 0.0624969 0.562546 -0.00240217 0.000659434 -0.000711731
23 1 0.999935 0.999856 0.625057 -0.000979059 -0.00103106 0.00221684
24 1 0.0624053 0.0623724 0.687533 -0.000218923 -0.000506637 0.0031151
25 1 0.999788 0.999788 0.74985 -0.000147374 -0.000685076 0.0017683
26 1 0.0621839 0.0621952 0.812189 0.000605646 -0.000349815 -0.00158399
27 1 0.999488 0.999531 0.874484 0.00336585 0.00212079 -0.00155349
28 1 0.0615572 0.0615393 0.93654 0.00820409 0.00740965 -0.0110355
29 1 0.998894 0.124229 0.998677 0.0843817 -0.00208995 0.0856491
30 1 0.0619271 0.185303 0.0612681 -0.0714049 1.21521e-05 -0.0870802
31 1 0.998811 0.124005 0.123731 0.0378559 -0.0171803 -0.0173887
32 1 0.0541666 0.185963 0.18567 -0.0381623 -0.131942 -0.0976407
33 1 0.99908 0.123721 0.250736 0.0166039 0.0417568 0.0215552
34 1 0.0661808 0.190548 0.308547 -0.205732 -0.104825 0.0834631
35 1 0.000409898 0.125519 0.374224 -0.0205279 0.00691054 0.0305987
36 1 0.0608119 0.185635 0.439034 0.023397 0.00840229 -0.0275504
37 1 0.999323 0.124263 0.500728 -0.0122739 -0.0001169 0.0100718
38 1 0.0614693 0.186795 0.563307 0.0554218 -0.00689 -0.0387857
39 1 0.999567 0.124591 0.625442 0.00631858 -0.00147354 -0.00702752
40 1 0.0623481 0.187394 0.687602 0.000609358 -0.000797797 -0.00195338
41 1 0.999801 0.124902 0.749974 -0.00025852 -0.001617 -0.000926542
42 1 0.06234 0.187493 0.812384 -0.00111415 -0.000148527 -0.00288808
43 1 0.999512 0.124774 0.87449 0.00211335 0.00140326 0.00146529
44 1 0.0616911 0.187438 0.936773 0.0195316 -0.00896355 -0.0136639
45 1 0.999551 0.249938 0.999297 0.0176492 -0.00541963 0.0286483
46 1 0.0612907 0.314009 0.0610493 0.0497223 -0.0156607 0.0183
47 1 0.999254 0.250879 0.123377 -0.00170216 0.0222418 0.052447
48 1 0.0667499 0.307917 0.190701 -0.257523 0.141866 -0.133399
49 1 0.998299 0.250252 0.250439 -0.126063 -0.0199341 -0.0342392
50 1 0.0511861 0.314658 0.315298 0.0467395 0.103105 0.0615516
51 1 0.998041 0.24847 0.376886 0.0327313 0.032855 -0.0465604
52 1 0.0610987 0.314453 0.438605 -0.0705619 -0.00160999 0.0636955
53 1 0.999178 0.249952 0.500758 0.0228467 0.00170382 -0.0254005
54 1 0.0616672 0.312481 0.562974 0.00726222 0.00627309 0.0172061
55 1 0.999563 0.24994 0.625388 -0.0025904 0.00172968 0.00205401
56 1 0.0623726 0.312526 0.687538 -0.00186644 -0.00114639 0.00168152
57 1 0.999832 0.250035 0.749977 -0.000118776 -0.000739125 -0.000121491
58 1 0.0623407 0.312657 0.812363 0.00234092 -0.000230574 0.00162797
59 1 0.999554 0.250102 0.874548 -0.000190322 -0.00355763 -0.000804653
60 1 0.0614619 0.313238 0.936595 0.0658508 0.00413954 0.045746
61 1 0.999418 0.375566 0.999405 -0.0166491 0.00373617 -0.0152988
62 1 0.0613622 0.438636 0.0613651 0.11668 -0.11668 0.11668
63 1 0.00058196 0.374108 0.125636 -0.0387353 0.0518856 -0.0205155
64 1 0.0610464 0.438708 0.185992 0.0182999 -0.0497226 0.015661
65 1 0.998282 0.376299 0.248603 0.0268906 -0.0181148 0.0355433
66 1 0.0612653 0.438071 0.314698 -0.0870801 0.0714043 -1.21979e-05
67 1 0.997452 0.37671 0.376952 0.0520795 -0.017952 -0.0193457
68 1 0.0633618 0.436507 0.43649 -0.0985028 0.0807827 0.0906313
69 1 0.998673 0.375866 0.501246 0.07624 0.000483257 -0.0754331
70 1 0.061767 0.4382 0.563121 -0.00058062 -0.00218357 0.0202079
71 1 0.999592 0.375236 0.625367 -0.0016061 -0.0019261 0.00117063
72 1 0.0623348 0.43768 0.687647 -0.000542788 -0.000315059 0.000449648
73 1 0.999825 0.37514 0.749956 0.000114956 0.000515817 0.0012716
74 1 0.0624297 0.437603 0.81242 0.00010846 -0.000694628 -0.00313222
75 1 0.999511 0.375433 0.874514 0.00841091 -0.000743479 0.00925274
76 1 0.0624962 0.437507 0.937402 0.00357267 -0.00360087 0.0057451
77 1 0.999351 0.500648 0.999353 0.0143203 -0.0143203 0.0143203
78 1 0.0624912 0.562599 0.0624991 0.00360096 -0.00574517 0.00357273
79 1 0.999402 0.50058 0.124436 -0.0152985 0.0166489 -0.00373607
80 1 0.0616074 0.563119 0.187033 0.0415413 -0.0335512 -0.00539716
81 1 0.999294 0.500448 0.250063 0.0286485 -0.0176493 0.00541969
82 1 0.061853 0.562685 0.3126 -0.00760968 0.0321921 0.00137699
83 1 0.998674 0.501104 0.375773 0.0856491 -0.0843817 0.00208987
84 1 0.0620416 0.562804 0.437918 -0.0121536 0.0339358 0.00983914
85 1 5.91821e-05 0.500014 0.499938 -0.00481681 -0.00319762 0.0012792
86 1 0.0621415 0.562932 0.56292 -0.00715748 -0.00534592 -0.00487028
87 1 0.999687 0.500383 0.625351 -0.000392212 -0.00180331 0.003461
88 1 0.062381 0.5627 0.687611 -0.000487961 2.97188e-05 0.000909667
89 1 0.999862 0.500173 0.750021 -0.000275193 -0.000289257 -0.000889641
90 1 0.06231 0.562711 0.812307 -0.000343892 -0.00178202 0.00248963
91 1 0.999837 0.500157 0.874824 0.000775549 -0.0013503 0.000543294
92 1 0.0621873 0.562849 0.937124 0.00203411 -0.000605891 0.000543156
93 1 0.999841 0.625177 0.99984 0.0013504 -0.000543351 0.000775594
94 1 0.0623951 0.687581 0.0624326 0.000694727 0.00313218 0.000108493
95 1 0.999632 0.625372 0.124701 0.00498558 -0.00516265 -0.00230889
96 1 0.0623993 0.687581 0.18745 0.00152682 -0.00160314 -0.000617727
97 1 0.999693 0.625255 0.250003 -0.00274651 0.0036862 0.00023517
98 1 0.0624604 0.68751 0.312504 -0.00122152 0.00141708 -0.00064954
99 1 0.999736 0.625248 0.375152 -0.00356182 0.00150005 -0.0013532
100 1 0.0624738 0.687574 0.437517 -0.00233791 0.00192532 0.00107182
101 1 0.999852 0.625236 0.500157 -0.00437821 0.00656427 0.00307029
102 1 0.0624228 0.687577 0.562576 -0.00158363 0.00144092 0.00112295
103 1 0.999799 0.625221 0.625157 -0.00143038 -0.00145256 -0.000610032
104 1 0.0623946 0.687546 0.687488 0.000501141 0.000414578 0.00113704
105 1 0.99983 0.62516 0.749946 0.000339055 -0.000663356 0.00121499
106 1 0.0623254 0.687596 0.812324 0.000639966 -0.00114946 0.000900902
107 1 0.999778 0.625204 0.874766 0.00171334 -0.00165786 0.00127726
108 1 0.0622227 0.687719 0.93721 0.00147855 -0.00383258 0.00253322
109 1 0.999826 0.74998 0.999865 0.000289268 0.000889622 -0.000275156
110 1 0.0623187 0.812354 0.0623377 0.000315085 -0.000449695 -0.000542725
111 1 0.999893 0.750038 0.124952 0.000431364 -0.000885355 -0.00111026
112 1 0.0624928 0.812496 0.187489 -0.000817655 -0.000648849 -8.5736e-05
113 1 0.999962 0.750017 0.250006 9.87378e-05 0.000845224 -0.00058291
114 1 0.0625117 0.812463 0.31253 0.00226113 0.0032043 -0.000874441
115 1 0.999975 0.749995 0.375025 0.00030101 0.00169052 0.000454963
116 1 0.0625975 0.81251 0.437396 -0.00141447 -0.00425898 0.000969342
117 1 1.87139e-05 0.750035 0.499973 -0.00191516 -0.000383146 0.00116704
118 1 0.0623738 0.812332 0.562567 -5.69812e-05 0.00308072 -0.00187361
119 1 0.999888 0.749972 0.625011 -0.000205024 0.000769716 0.000201434
120 1 0.0623603 0.812361 0.687451 8.60389e-05 -0.000146715 0.000118142
121 1 0.999822 0.749978 0.749882 0.00100641 -0.000467278 0.000798815
122 1 0.0622834 0.812353 0.812294 0.00156677 -0.00053427 0.000164812
123 1 0.999747 0.75001 0.87477 0.00116931 -0.00130284 0.00117367
124 1 0.0622446 0.812334 0.93723 0.000443261 -0.00145848 -0.000401329
125 1 0.999616 0.87465 0.99969 0.00180322 -0.00346116 -0.0003923
126 1 0.0617981 0.93688 0.0617698 0.00218336 -0.0202082 -0.000580753
127 1 0.999742 0.874724 0.12488 -0.000476599 0.000332302 -0.000223708
128 1 0.0620546 0.937237 0.187416 0.00383215 -0.0250708 -0.00899781
129 1 0.999823 0.874796 0.250004 -0.00192402 -0.00328749 -0.0035677
130 1 0.0618051 0.936925 0.312941 0.0591966 0.0519356 0.00143768
131 1 0.999788 0.874728 0.37522 0.00640824 0.00893708 0.000679989
132 1 0.0628001 0.937667 0.437192 -0.00045121 0.00117109 0.000749049
133 1 7.32247e-05 0.874976 0.49991 -0.00171863 -0.00140308 0.00165262
134 1 0.0623536 0.937259 0.562629 -0.00109111 -0.00267785 0.00417351
135 1 0.999895 0.874843 0.625002 -0.000276388 -0.000611671 0.00112501
136 1 0.0622765 0.937214 0.687567 0.000989332 0.00143688 -0.00201554
137 1 0.99976 0.874771 0.749862 0.00102916 0.000277813 0.000166507
138 1 0.0622017 0.937135 0.812194 0.00147962 0.000533744 -0.000104585
139 1 0.999596 0.874685 0.874663 0.00113481 0.00318166 0.00361978
140 1 0.0618692 0.936862 0.936862 -0.0011945 0.00878218 0.00879539
141 1 0.124133 0.998755 0.998676 -0.00048328 0.0754333 0.0762402
142 1 0.185545 0.061396 0.0611015 0.0016097 -0.0636959 -0.070562
143 1 0.123663 0.998171 0.123252 0.0112824 0.053284 0.00647915
144 1 0.185645 0.0529835 0.184773 -0.0910916 0.0246416 -0.0583435
145 1 0.12397 0.999114 0.250963 0.0249944 0.00637118 -0.00521698
146 1 0.192044 0.0672285 0.307828 -0.173825 -0.286514 0.167973
147 1 0.12615 0.00100087 0.373784 -0.0500727 -0.0586043 0.0592294
148 1 0.186269 0.0613381 0.438559 -0.00032664 0.00643771 -0.0408133
149 1 0.124628 0.999591 0.500321 -0.00696293 -0.0215604 0.0226626
150 1 0.186964 0.0614546 0.563295 -0.00195763 0.0546937 -0.0454227
151 1 0.124676 0.999541 0.625369 0.00019569 0.00637744 -0.0073658
152 1 0.187399 0.0622877 0.687607 0.000587786 0.00166697 -0.00316746
153 1 0.124855 0.999747 0.749936 0.000107524 -0.000115998 -0.000963635
154 1 0.187435 0.062235 0.812335 0.0023567 -0.00103938 -0.0023417
155 1 0.124665 0.999402 0.874425 0.00415871 0.00283327 0.00133882
156 1 0.187405 0.0613855 0.936608 -0.00383657 0.0264116 -0.00504948
157 1 0.123288 0.123049 0.997455 0.0179518 0.0193456 0.05208
158 1 0.18534 0.184703 0.051189 -0.103105 -0.0615523 0.0467394
159 1 0.131217 0.13049 0.129313 -0.29876 -0.261776 -0.220391
160 1 0.119764 0.11896 0.249162 0.0656787 0.107477 0.0524508
161 1 0.18552 0.184544 0.31269 0.0836521 0.0833078 -0.0787809
162 1 0.124587 0.124667 0.375593 0.00484242 -0.0330384 -0.060401
163 1 0.191064 0.190778 0.43285 -0.123157 -0.101752 0.287756
164 1 0.125886 0.125649 0.499448 -0.0380875 -0.0198313 0.037684
165 1 0.187417 0.187286 0.562473 -0.00856588 -0.00716311 -0.0090249
166 1 0.124962 0.124896 0.624985 -0.0056298 -0.00510559 0.0255092
167 1 0.187462 0.187419 0.687453 -0.00143217 -0.00117412 -0.000488094
168 1 0.124886 0.124873 0.749952 0.000235438 -0.000413822 -0.00144455
169 1 0.187381 0.18735 0.812351 0.00203991 0.00159313 0.0128336
170 1 0.124502 0.124457 0.874553 -0.0108996 -0.0113838 -0.0270887
171 1 0.186977 0.186798 0.935453 0.0024073 0.00286325 0.170331
172 1 0.123699 0.251398 0.998285 0.0181148 -0.0355431 0.0268903
173 1 0.192082 0.3093 0.0667528 -0.141866 0.133399 -0.257524
174 1 0.119821 0.250032 0.117173 0.0150298 0.0409223 0.0900684
175 1 0.185642 0.314356 0.185645 0.0566441 -0.0566442 0.0566442
176 1 0.117296 0.249062 0.381403 0.0367444 -0.00272088 -0.0096988
177 1 0.18477 0.314353 0.447018 -0.0583432 0.0910914 -0.0246414
178 1 0.123368 0.248504 0.50116 0.0310939 0.0179731 -0.0103135
179 1 0.187003 0.312706 0.563746 -0.00845012 -0.00105303 -0.122567
180 1 0.124709 0.24981 0.624895 -0.0201816 -0.0134836 0.0550363
181 1 0.187405 0.31249 0.687528 0.000237728 -0.0014794 -0.00813317
182 1 0.124926 0.249999 0.749994 -0.00118852 7.65507e-05 -0.00197134
183 1 0.187487 0.312513 0.812573 -0.000134025 0.0027569 -0.00321237
184 1 0.124734 0.250211 0.874993 -0.0202487 0.0127361 -0.054588
185 1 0.187596 0.312727 0.937599 -0.00723506 0.00751434 -0.0132918
186 1 0.125891 0.374365 0.000584833 -0.0518856 0.0205159 -0.0387356
187 1 0.185989 0.438952 0.0612936 0.0156606 -0.0183 0.049722
188 1 0.124293 0.375705 0.124296 0.0342172 -0.0342176 0.0342179
189 1 0.190698 0.433248 0.192085 -0.133398 0.257523 -0.141866
190 1 0.11717 0.380178 0.249969 0.0900688 -0.0150302 -0.040922
191 1 0.185667 0.445832 0.314038 -0.0976414 0.0381637 0.131943
192 1 0.12931 0.368781 0.369511 -0.220391 0.298759 0.261775
193 1 0.18509 0.437686 0.437887 -0.00937069 0.103057 0.110552
194 1 0.123249 0.376335 0.50183 0.00647924 -0.0112827 -0.053284
195 1 0.187414 0.437944 0.562765 -0.00899781 -0.00383241 0.0250705
196 1 0.12465 0.375245 0.625126 -0.0152647 0.0133467 0.0319503
197 1 0.187486 0.437505 0.687505 -8.57717e-05 0.000817635 0.000648924
198 1 0.124949 0.375049 0.750005 0.000209654 -0.00031147 -0.000670484
199 1 0.187447 0.437599 0.81242 -0.000617731 -0.00152677 0.0016031
200 1 0.125003 0.375099 0.875049 -0.00646316 0.00273321 -0.0258567
201 1 0.18703 0.438391 0.936882 -0.00539719 -0.0415416 0.0335514
202 1 0.124433 0.500596 0.999421 -0.00373617 0.0152987 -0.0166492
203 1 0.18676 0.563406 0.0614648 -0.00413955 -0.045746 0.0658506
204 1 0.125633 0.499416 0.125894 -0.0205154 0.0387352 -0.0518853
205 1 0.187271 0.562402 0.187599 -0.00751433 0.013292 -0.00723503
206 1 0.123374 0.500745 0.249122 0.0524472 0.00170225 -0.022242
207 1 0.18719 0.563403 0.312668 -0.014331 -0.0714222 0.0103807
208 1 0.123728 0.501187 0.375996 -0.0173891 -0.0378556 0.0171805
209 1 0.187313 0.562599 0.437911 -0.00201097 0.0357561 0.00784188
210 1 0.124354 0.500873 0.500973 -0.0115686 -0.0793444 -0.081215
211 1 0.187509 0.562734 0.562764 0.00136393 0.00384529 0.00383763
212 1 0.124877 0.500257 0.625277 -0.000223707 0.000476453 -0.000332422
213 1 0.187483 0.562615 0.68759 -0.000128045 0.000211431 -0.000577562
214 1 0.124949 0.500105 0.749964 -0.00111023 -0.000431346 0.000885361
215 1 0.187438 0.562656 0.812349 -0.000382493 0.000603339 -0.00154301
216 1 0.124698 0.500367 0.874629 -0.00230889 -0.00498551 0.00516259
217 1 0.187317 0.562903 0.937102 -0.00100323 -0.000454145 0.000596783
218 1 0.124565 0.625487 0.999514 0.00074345 -0.00925275 0.00841087
219 1 0.187341 0.687638 0.0623436 0.000230562 -0.00162794 0.00234092
220 1 0.124899 0.624952 0.125006 -0.00273308 0.0258565 -0.00646311
221 1 0.187485 0.687428 0.18749 -0.00275691 0.00321238 -0.000133945
222 1 0.124751 0.624859 0.249947 -0.0174806 0.047373 -0.012813
223 1 0.1875 0.687498 0.312465 -0.0014644 -0.00314431 0.00084945
224 1 0.124813 0.624982 0.375114 -0.0183905 0.0361002 0.0165265
225 1 0.187483 0.687477 0.437486 -0.000424495 0.0015353 0.000775728
226 1 0.124884 0.625171 0.500167 -0.000483698 0.00176949 0.00280516
227 1 0.18747 0.687525 0.562571 0.000178812 0.000945927 0.000898398
228 1 0.124948 0.625122 0.62511 -0.000128913 0.0016528 0.00210143
229 1 0.187465 0.687503 0.687499 -0.000219057 0.000150763 0.000419143
230 1 0.124919 0.625109 0.749947 5.90099e-05 0.000229462 -0.000256215
231 1 0.187414 0.687581 0.812328 0.000217031 -0.000894165 0.000512275
232 1 0.124818 0.625235 0.874726 0.000228677 -0.0018812 0.00143643
233 1 0.187357 0.687703 0.937217 0.0014859 0.000140841 0.000208013
234 1 0.124858 0.750045 0.999828 -0.000515797 -0.00127162 0.00011498
235 1 0.187473 0.812464 0.0623755 0.00114634 -0.00168147 -0.0018664
236 1 0.12495 0.749996 0.124951 0.0003115 0.000670505 0.00020969
237 1 0.187508 0.812473 0.187408 0.00147935 0.00813322 0.000237791
238 1 0.12502 0.750009 0.249978 -0.000678238 0.000283166 -0.000296721
239 1 0.187607 0.81259 0.312418 -0.00143018 0.000847944 0.000920786
240 1 0.125058 0.750006 0.374936 -0.00121415 0.00093289 0.000263407
241 1 0.187474 0.812419 0.437514 -0.000349037 0.00264079 -0.00250436
242 1 0.124978 0.749947 0.500009 -0.00138353 0.0016811 -0.000787785
243 1 0.187435 0.812314 0.562603 0.000696366 -0.000588726 0.000246742
244 1 0.124929 0.749931 0.625023 6.87819e-05 -3.49417e-05 0.000841674
245 1 0.187419 0.812325 0.687497 0.000473317 -1.95022e-05 -0.000429489
246 1 0.124883 0.74995 0.749894 0.00046453 -0.000431062 0.000198259
247 1 0.187409 0.812343 0.812313 0.000635032 -0.000282674 -0.000110017
248 1 0.124834 0.750004 0.874766 0.00096383 -0.000459211 -5.33596e-05
249 1 0.1874 0.812331 0.937229 0.000929073 -0.000318733 -0.000908673
250 1 0.124762 0.874634 0.999595 0.00192608 -0.00117069 -0.00160612
251 1 0.187517 0.937027 0.0616701 -0.0062731 -0.0172063 0.00726221
252 1 0.124754 0.874875 0.124653 -0.0133468 -0.0319502 -0.0152646
253 1 0.187292 0.936255 0.187006 0.00105293 0.122567 -0.00845001
254 1 0.124933 0.875186 0.250053 -0.0194432 -0.0541317 0.0117043
255 1 0.187739 0.93778 0.312296 -0.0122094 -0.00570938 0.0101766
256 1 0.125183 0.87521 0.374839 -0.00728645 -0.0285982 0.00687257
257 1 0.187035 0.936836 0.438304 -0.00681759 0.0476641 -0.0631616
258 1 0.124749 0.87465 0.50025 -0.00134243 0.00863331 -0.00772813
259 1 0.187392 0.937166 0.562744 -0.00164686 -0.00173737 0.00252481
260 1 0.124874 0.87477 0.625084 -0.000498578 5.66309e-05 -0.00019111
261 1 0.187401 0.937203 0.6876 0.0012694 -0.000363357 0.000388835
262 1 0.124848 0.874751 0.749887 0.0011546 -0.00024036 0.000523442
263 1 0.187409 0.937141 0.812226 0.00108982 4.60404e-05 0.000171105
264 1 0.124784 0.87468 0.874666 0.0021476 -0.000673831 -0.000881171
265 1 0.1874 0.936919 0.936912 0.00565478 -0.00163352 -0.00339121
266 1 0.250046 0.999243 0.999181 -0.00170395 0.0254005 0.0228468
267 1 0.314363 0.0609667 0.0608148 -0.00840257 0.0275512 0.0233973
268 1 0.251494 0.998841 0.123371 -0.017973 0.0103134 0.031094
269 1 0.30922 0.0671511 0.191067 0.101752 -0.287756 -0.123157
270 1 0.250447 0.998939 0.249707 -0.00208644 -0.208939 -0.0023719
271 1 0.315195 0.0527661 0.314716 0.0600316 0.0354112 0.077966
272 1 0.249014 0.998844 0.376192 0.008314 0.0149413 -0.0221387
273 1 0.314837 0.0615624 0.438299 0.00187554 -0.0810951 0.0840868
274 1 0.250172 0.999501 0.500412 0.00123129 0.0145992 -0.0114327
275 1 0.31262 0.0616275 0.563041 0.00442024 0.0122674 0.0141183
276 1 0.249983 0.999532 0.625364 0.0021193 -0.000366033 0.00106008
277 1 0.312554 0.0622973 0.687578 -0.00068597 -0.000595887 0.000815083
278 1 0.250005 0.999757 0.749952 0.000890638 0.000153712 -0.000612365
279 1 0.312656 0.0622401 0.812318 0.00141117 0.00217035 0.000711929
280 1 0.250107 0.999413 0.874462 -0.00307151 0.00081344 4.96468e-05
281 1 0.313341 0.0612925 0.936498 0.00266989 0.0583078 0.0360891
282 1 0.251529 0.123115 0.998044 -0.032855 0.0465605 0.0327313
283 1 0.30945 0.191454 0.0661837 0.104826 -0.0834631 -0.205732
284 1 0.250937 0.118598 0.117299 0.00272059 0.00969897 0.0367446
285 1 0.315454 0.187312 0.185523 -0.0833076 0.0787809 0.0836522
286 1 0.250183 0.118277 0.380798 -0.0263491 0.0357551 -0.0187065
287 1 0.314713 0.184804 0.447235 0.0779657 -0.0600312 -0.0354113
288 1 0.248842 0.123366 0.501158 0.00992333 0.0356199 -0.0050067
289 1 0.312854 0.186927 0.563904 -0.00123781 -0.00386689 -0.128681
290 1 0.24989 0.124633 0.62495 -0.0131585 -0.0181611 0.0545831
291 1 0.312532 0.187355 0.687571 -0.000969198 0.00134279 -0.00930338
292 1 0.249993 0.124855 0.74999 0.000904329 -0.000413676 -0.00176925
293 1 0.312493 0.187431 0.812544 0.00337411 0.000734787 -0.00244059
294 1 0.250192 0.124543 0.874878 0.0167688 -0.0164633 -0.0479823
295 1 0.31272 0.187414 0.937413 0.00290737 -0.00506431 -0.00952292
296 1 0.249746 0.249562 0.998302 0.019934 0.0342394 -0.126063
297 1 0.314036 0.314331 0.0541695 0.131942 0.0976403 -0.0381624
298 1 0.25003 0.249968 0.250033 -0.0164435 0.0164449 -0.0164453
299 1 0.312687 0.314478 0.315457 -0.0787809 -0.083652 -0.0833074
300 1 0.307825 0.307955 0.432773 0.167973 0.173825 0.286514
301 1 0.249704 0.249552 0.501062 -0.00237205 0.00208638 0.20894
302 1 0.312293 0.31226 0.562221 0.0101766 0.0122094 0.00570969
303 1 0.249926 0.249862 0.624846 -0.00102509 0.00103595 0.0720431
304 1 0.312415 0.312391 0.687411 0.000920732 0.00143014 -0.000847868
305 1 0.24995 0.249932 0.750004 0.000609439 0.000820842 -0.00156199
306 1 0.312462 0.312498 0.812503 0.000849517 0.00146438 0.00314427
307 1 0.24995 0.24993 0.875062 0.00806076 0.00843845 -0.0661094
308 1 0.312665 0.312809 0.936598 0.0103807 0.014331 0.071422
309 1 0.249119 0.376624 0.999257 -0.022242 -0.0524468 -0.00170269
310 1 0.314696 0.438733 0.06193 -1.18592e-05 0.0870802 -0.0714047
311 1 0.249966 0.382828 0.119824 -0.0409219 -0.0900678 0.0150291
312 1 0.315295 0.448812 0.185343 0.0615525 -0.0467392 -0.103105
313 1 0.308545 0.433817 0.309453 0.0834626 0.205731 0.104825
314 1 0.24916 0.380235 0.381041 0.0524501 -0.0656792 -0.107477
315 1 0.313595 0.438361 0.438281 -0.0168427 -0.0491535 -0.00921273
316 1 0.25096 0.376028 0.500887 -0.00521716 -0.0249945 -0.00637118
317 1 0.312938 0.438193 0.563076 0.00143758 -0.0591966 -0.0519356
318 1 0.25005 0.375066 0.624815 0.0117042 0.0194432 0.0541317
319 1 0.312527 0.437487 0.687538 -0.000874437 -0.00226113 -0.00320429
320 1 0.249975 0.374979 0.749992 -0.000296758 0.000678213 -0.000283141
321 1 0.312501 0.437538 0.812491 -0.000649437 0.00122153 -0.00141709
322 1 0.249944 0.375247 0.875142 -0.0128129 0.0174806 -0.0473733
323 1 0.312597 0.438145 0.937316 0.00137712 0.00760975 -0.0321923
324 1 0.25006 0.500704 0.999553 0.00541975 -0.0286482 0.017649
325 1 0.31256 0.563229 0.0616939 0.00896353 0.013664 0.0195317
326 1 0.2486 0.501716 0.123702 0.0355434 -0.0268904 0.0181147
327 1 0.3132 0.564548 0.18698 -0.00286301 -0.170331 0.00240723
328 1 0.250437 0.501699 0.249749 -0.0342394 0.126062 0.0199341
329 1 0.312584 0.562588 0.312723 0.00506436 0.0095232 0.00290736
330 1 0.250733 0.500919 0.37628 0.0215556 -0.016604 -0.041757
331 1 0.31291 0.56306 0.438195 -0.00174975 -0.030443 -0.0321911
332 1 0.249777 0.500091 0.500178 -0.00464534 -0.00778551 -0.0161533
333 1 0.312534 0.562589 0.562623 0.00196189 0.0034525 0.00256104
334 1 0.250001 0.500175 0.625205 -0.00356781 0.00192389 0.00328745
335 1 0.312539 0.562561 0.687572 -0.000970148 0.00123568 0.000961263
336 1 0.250003 0.500036 0.749984 -0.000582881 -9.87086e-05 -0.000845195
337 1 0.312539 0.562639 0.812355 -0.00112917 0.000686077 -0.000246827
338 1 0.25 0.500305 0.874746 0.000235263 0.00274658 -0.00368625
339 1 0.312528 0.563017 0.937022 -0.00420213 0.00175319 -0.000304618
340 1 0.249896 0.625453 0.999557 0.00355764 0.000804679 -0.000190391
341 1 0.312505 0.687617 0.0623429 0.000148478 0.00288819 -0.00111416
342 1 0.249787 0.625008 0.124737 -0.0127362 0.0545879 -0.0202488
343 1 0.312648 0.68765 0.187384 -0.00159315 -0.0128336 0.0020399
344 1 0.250068 0.624939 0.249953 -0.00843833 0.0661094 0.0080607
345 1 0.312567 0.687458 0.312496 -0.00073488 0.00244066 0.0033741
346 1 0.250018 0.6249 0.375148 0.0119145 0.0422735 0.0176544
347 1 0.31254 0.687551 0.437577 -0.000314766 -0.00179018 -0.00139131
348 1 0.249953 0.625116 0.500154 -0.000581474 0.00513714 0.00297447
349 1 0.312508 0.687496 0.56259 0.000460297 0.00261298 0.00145289
350 1 0.250035 0.625067 0.625102 -0.000250691 0.000229565 -0.000253842
351 1 0.312528 0.687476 0.687521 0.00034078 -4.01062e-05 -0.000258933
352 1 0.249996 0.625068 0.749953 -0.000121402 0.000121233 -0.000239071
353 1 0.312525 0.687564 0.81234 0.000196089 -0.000569278 0.000158625
354 1 0.249933 0.625247 0.874716 1.68463e-05 -0.0015914 0.00135788
355 1 0.312523 0.687711 0.937206 9.70021e-05 -0.000591178 0.00040752
356 1 0.249963 0.750024 0.999835 0.000739124 0.000121515 -0.000118737
357 1 0.312605 0.8124 0.0623509 0.000797704 0.00195345 0.000609451
358 1 0.249999 0.750007 0.124929 -7.66162e-05 0.00197141 -0.00118843
359 1 0.31258 0.812548 0.187464 0.00117402 0.000488229 -0.00143209
360 1 0.250066 0.749997 0.249953 -0.000820924 0.00156211 0.000609464
361 1 0.312643 0.81243 0.312534 -0.00134288 0.00930352 -0.000969148
362 1 0.250036 0.749991 0.374979 -0.000624392 -0.000305842 0.000590043
363 1 0.312546 0.812424 0.437579 -0.000959566 -0.00105209 0.000551824
364 1 0.249986 0.749939 0.500037 0.0001914 0.000847372 -0.000148468
365 1 0.312528 0.81227 0.562685 -0.000169789 0.000697402 -0.000638241
366 1 0.249981 0.749896 0.625059 0.000227075 0.000184535 6.94423e-05
367 1 0.312526 0.812304 0.687541 0.000514818 -8.3142e-05 -0.0006684
368 1 0.249977 0.74993 0.749918 0.000370266 -0.000429694 -0.000251141
369 1 0.312557 0.812337 0.812332 0.000591955 -0.00038128 -0.000267142
370 1 0.249965 0.749999 0.874776 0.000510793 -0.000895011 -0.000118692
371 1 0.312586 0.812327 0.937235 0.000105282 -0.00108272 -0.00109096
372 1 0.250058 0.874614 0.999566 -0.00172973 -0.00205404 -0.00259038
373 1 0.313203 0.936694 0.0614721 0.00688979 0.0387859 0.0554219
374 1 0.250189 0.875106 0.124712 0.0134835 -0.0550362 -0.0201816
375 1 0.312712 0.937529 0.18742 0.007163 0.00902531 -0.00856567
376 1 0.250136 0.875155 0.249929 -0.00103599 -0.0720428 -0.00102493
377 1 0.313072 0.936097 0.312857 0.00386678 0.128681 -0.00123763
378 1 0.249976 0.87512 0.375156 -0.0135394 -0.0537257 0.0190445
379 1 0.312644 0.937032 0.438194 0.00687463 -0.0220965 -0.00771276
380 1 0.249991 0.874656 0.500294 0.00309788 -0.00246028 0.0015189
381 1 0.312557 0.93698 0.562957 -0.00312502 -0.00166978 0.00101933
382 1 0.249943 0.874705 0.625177 0.000395723 0.000890899 -0.00153723
383 1 0.312568 0.937171 0.687652 1.66251e-06 0.000396741 -0.00107607
384 1 0.249983 0.874741 0.749924 0.000592396 -0.000107385 -0.000375578
385 1 0.312635 0.937151 0.812249 -0.000543826 0.000104302 -0.000301498
386 1 0.250027 0.874682 0.87468 0.00113359 5.62974e-05 -8.81384e-05
387 1 0.312742 0.937004 0.937016 0.0022715 -0.00182498 -0.00208262
388 1 0.375735 0.999273 0.999326 0.000116801 -0.0100717 -0.0122738
389 1 0.438262 0.0616205 0.0616856 -0.0752969 0.105784 0.10239
390 1 0.374349 0.000553554 0.125889 0.0198315 -0.0376842 -0.0380875
391 1 0.43866 0.0614419 0.186272 -0.00643803 0.0408138 -0.000326436
392 1 0.376632 0.998843 0.248844 -0.0356199 0.00500653 0.00992336
393 1 0.438436 0.0617023 0.31484 0.0810951 -0.0840867 0.00187608
394 1 0.376758 0.997932 0.376625 -0.011796 0.0613483 -0.0103393
395 1 0.436682 0.0633165 0.436685 0.0887072 -0.0887073 0.0887076
396 1 0.375866 0.998727 0.501237 0.00299696 0.0819551 -0.083167
397 1 0.438335 0.0616321 0.563284 -0.00330996 0.00352112 0.0179796
398 1 0.375258 0.999506 0.625436 -0.00186992 0.0010031 -0.00241295
399 1 0.437741 0.062256 0.687727 -0.000334044 0.000461217 0.000533203
400 1 0.375154 0.999759 0.749971 0.000765875 0.000529772 6.07482e-05
401 1 0.437644 0.0623965 0.812429 -0.0011946 0.000918324 -0.00216969
402 1 0.375485 0.999455 0.874479 -9.01795e-05 0.00782907 0.00788827
403 1 0.437537 0.0625251 0.937432 -0.00418809 0.0024668 0.00235173
404 1 0.37448 0.125777 0.000412765 -0.00691031 -0.0305992 -0.0205281
405 1 0.438278 0.186404 0.0616404 -0.00921311 0.0168427 0.0491534
406 1 0.375331 0.124408 0.12459 0.0330377 0.0604013 0.00484277
407 1 0.43277 0.192173 0.192046 0.286514 -0.167972 -0.173825
408 1 0.381721 0.119203 0.250186 -0.035755 0.0187066 -0.0263485
409 1 0.447232 0.185285 0.315197 -0.0354111 -0.0779665 0.060032
410 1 0.369732 0.130266 0.369735 0.269198 -0.269198 0.269199
411 1 0.438296 0.185161 0.438439 0.0840864 -0.00187571 0.0810954
412 1 0.376622 0.12324 0.502069 -0.0103397 0.0117961 -0.0613482
413 1 0.438191 0.187354 0.562969 -0.007713 -0.00687471 0.0220964
414 1 0.375361 0.124572 0.625243 0.0131901 -0.0132512 0.029608
415 1 0.437576 0.187452 0.687577 0.000551776 0.000959482 0.0010521
416 1 0.375076 0.124895 0.750021 -1.41383e-05 0.00103383 -0.000114078
417 1 0.437574 0.187458 0.812451 -0.0013913 0.000314662 0.00179015
418 1 0.375123 0.124911 0.874938 0.000701316 -0.00267109 -0.0188615
419 1 0.438192 0.187089 0.936941 -0.0321915 0.00174985 0.0304434
420 1 0.376277 0.249266 0.999083 -0.0417568 -0.0215554 0.0166039
421 1 0.437884 0.314908 0.0623154 0.110552 0.00937057 -0.103057
422 1 0.381038 0.250839 0.119766 -0.107477 -0.0524499 0.0656794
423 1 0.447015 0.315228 0.185648 -0.0246412 0.0583436 -0.091092
424 1 0.432847 0.308934 0.309223 0.287757 0.123157 0.101752
425 1 0.380795 0.249816 0.381724 -0.0187064 0.0263487 -0.0357549
426 1 0.438556 0.31373 0.438663 -0.0408136 0.000326527 -0.00643786
427 1 0.376189 0.250985 0.501157 -0.0221389 -0.00831409 -0.0149412
428 1 0.438302 0.312963 0.563165 -0.0631617 0.00681756 -0.0476642
429 1 0.375153 0.250023 0.624881 0.0190444 0.0135394 0.0537257
430 1 0.437511 0.312524 0.687582 -0.0025044 0.000349021 -0.0026408
431 1 0.374976 0.249963 0.75001 0.000590067 0.000624283 0.000305847
432 1 0.437483 0.312516 0.812524 0.000775807 0.000424437 -0.00153533
433 1 0.375145 0.24998 0.875101 0.0176544 -0.0119145 -0.0422736
434 1 0.437908 0.312685 0.937402 0.0078419 0.00201089 -0.0357562
435 1 0.375993 0.37627 0.998814 0.0171807 0.017389 0.0378558
436 1 0.436487 0.436636 0.0634946 0.0906321 0.0985034 -0.0807835
437 1 0.369508 0.370688 0.13122 0.261777 0.220392 -0.29876
438 1 0.438602 0.4389 0.185548 0.063696 0.0705624 0.00160944
439 1 0.3814 0.382702 0.250939 -0.00969827 -0.0367447 0.0027209
440 1 0.439032 0.439186 0.314366 -0.0275507 -0.023397 -0.00840216
441 1 0.37559 0.375412 0.375334 -0.0604012 -0.00484253 0.0330382
442 1 0.438378 0.438316 0.438264 -0.105783 -0.10239 -0.0752968
443 1 0.373781 0.373849 0.499 0.0592291 0.0500724 0.0586044
444 1 0.437189 0.437198 0.562334 0.000748942 0.000451161 -0.00117109
445 1 0.374836 0.374815 0.624792 0.00687245 0.00728644 0.0285983
446 1 0.437393 0.437401 0.687491 0.000969365 0.00141447 0.00425895
447 1 0.374933 0.37494 0.749995 0.000263461 0.00121418 -0.000932859
448 1 0.437514 0.437524 0.812427 0.00107191 0.00233799 -0.00192538
449 1 0.375111 0.375186 0.875019 0.0165266 0.0183904 -0.0361002