ITEM: TIMESTEP
0
ITEM: NUMBER OF ATOMS
1026
ITEM: BOX BOUNDS pp pp pp
0.0000000000000000e+00 2.2857118000000000e+01
0.0000000000000000e+00 2.2857118000000000e+01
0.0000000000000000e+00 2.2857118000000000e+01
ITEM: ATOMS id type xs ys zs fx fy fz
1 1 0.233775 0.226176 0.127911 0.0197788 -0.0899831 -0.148842
2 1 0.287628 0.302937 0.155171 -0.0162664 -0.118288 0.0978408
3 1 0.220986 0.140505 0.211446 0.104597 0.124944 0.143909
4 1 0.155168 0.21237 0.197064 0.0978391 0.0162788 0.118288
5 1 0.359494 0.288555 0.220989 -0.124946 -0.143908 0.104595
6 1 0.273822 0.37209 0.233778 0.0899926 0.148836 0.0197831
7 1 0.286078 0.14144 0.284569 -0.17196 0.157557 -0.0900441
8 1 0.358558 0.215432 0.28608 -0.157556 0.0900451 -0.171961
9 1 0.127909 0.266223 0.273825 -0.148841 -0.0197862 0.0899822
10 1 0.197061 0.34483 0.287631 0.118282 -0.097833 -0.0162844
11 1 0.284566 0.213921 0.358561 -0.0900439 0.171959 -0.157557
12 1 0.211443 0.279012 0.359497 0.143911 -0.1046 -0.124943
13 1 0.999728 0.999925 0.999915 -0.00326522 -0.00469652 -0.00494162
14 1 0.0626699 0.0629208 0.0628931 -0.0119652 -0.00392169 -0.0319903
15 1 0.999615 0.999485 0.124759 0.0292497 0.0318516 -0.006225
16 1 0.0627309 0.0625566 0.186222 -0.0768639 -0.0914303 -0.0286604
17 1 4.76779e-05 0.999959 0.249898 -0.0100472 0.00504832 -0.00141859
18 1 0.0619149 0.0621019 0.313448 0.0427072 -0.00286615 -0.00333255
19 1 0.999865 0.999753 0.375268 -0.023135 -0.00708913 0.00646229
20 1 0.061885 0.0619436 0.438231 0.0880726 0.0277734 -0.0616483
21 1 0.999721 0.999606 0.500354 0.00949659 0.000268912 -0.00438029
22 1 0.0625889 0.0624765 0.562603 -0.00318659 -0.00319443 0.00414988
23 1 0.999933 0.999865 0.625075 -0.00107717 -0.00178626 0.00295635
24 1 0.0624106 0.0623838 0.687564 -0.000305436 -0.000754224 0.00332621
25 1 0.999813 0.999816 0.749879 -0.000839979 -0.00132026 0.00098932
26 1 0.0622374 0.0622541 0.812248 -0.00152902 -0.00189277 -0.00265699
27 1 0.999471 0.999526 0.874459 0.00226805 0.000776027 -0.00132218
28 1 0.0615109 0.0615128 0.936483 0.00631488 0.00457595 -0.0105681
29 1 0.9987 0.124042 0.998599 0.0508924 -0.00233312 0.0567788
30 1 0.0605209 0.185144 0.0604395 0.0697996 0.0478355 -0.00765749
31 1 3.51368e-07 0.124928 0.124965 -0.0145353 -0.0249968 -0.0130696
32 1 0.0578015 0.188967 0.188566 0.0167472 -0.0684655 0.00458077
33 1 0.998795 0.123843 0.250329 0.0561512 0.0588819 0.011097
34 1 0.0623201 0.187435 0.311899 -0.105141 0.0889376 0.0920768
35 1 0.999594 0.124714 0.37522 -0.00397838 0.0179437 -0.00343503
36 1 0.0609154 0.185863 0.43897 -0.0027126 -0.00235917 0.0364622
37 1 0.999349 0.124315 0.500803 -0.0118752 -0.00132265 0.00119159
38 1 0.0615753 0.186851 0.563339 0.0457028 -0.00815504 -0.0295337
39 1 0.9996 0.124621 0.625446 0.00536758 -0.00140301 -0.00516783
40 1 0.0623683 0.187407 0.687628 0.00127714 -0.000916895 -0.00210565
41 1 0.999827 0.124913 0.749994 -0.000231104 -0.00177826 -0.000700928
42 1 0.0623697 0.187501 0.81243 -0.00157829 -0.000435998 -0.00514878
43 1 0.999514 0.124781 0.874502 -0.00101664 -0.0014091 -0.0022196
44 1 0.0616481 0.18741 0.936815 0.00976967 -0.0163678 -0.026162
45 1 0.999004 0.249997 0.998678 0.0319425 -0.0033963 0.0548844
46 1 0.060247 0.314702 0.0599461 0.0852031 -0.0371589 -0.0263162
47 1 0.999542 0.250258 0.123176 -0.0280441 0.0196486 0.0421696
48 1 0.0651258 0.308066 0.187358 -0.0454612 0.0831049 -0.0163121
49 1 0.999616 0.250853 0.251483 0.00279627 0.00750307 -0.0438875
50 1 0.053573 0.316318 0.315958 0.0262278 0.00287611 0.0734813
51 1 0.997904 0.249457 0.377142 0.0742493 -0.00797871 -0.0541236
52 1 0.0608388 0.314353 0.439751 -0.0291602 -0.00865178 -0.0286766
53 1 0.99914 0.249892 0.501002 0.012554 -0.000987713 -0.0221172
54 1 0.0617022 0.312557 0.563251 0.014562 0.00847409 -0.0100955
55 1 0.999567 0.249931 0.625437 -0.00255437 0.00189616 0.00301951
56 1 0.0623859 0.31254 0.687579 -0.00126571 -0.000636133 0.000653626
57 1 0.999844 0.250028 0.749989 -0.000122856 -0.000482994 0.000287716
58 1 0.0623522 0.312651 0.812376 0.00201308 0.00122036 0.000138069
59 1 0.999532 0.250085 0.874502 -0.00337275 -0.00263561 -0.00162708
60 1 0.0614316 0.313264 0.93653 0.0401951 0.0131317 0.0160997
61 1 0.998831 0.375994 0.998791 -0.00765954 -0.00419052 -0.000428415
62 1 0.0610165 0.438982 0.0610193 0.0605825 -0.0605833 0.0605818
63 1 0.999671 0.374671 0.124822 0.0235282 0.0279916 0.038534
64 1 0.0599433 0.439751 0.185299 -0.0263164 -0.0852023 0.0371587
65 1 0.997678 0.376176 0.248543 0.115608 0.0379428 0.0431644
66 1 0.0604367 0.439477 0.314857 -0.00765685 -0.0698005 -0.0478357
67 1 0.997668 0.376849 0.377098 -0.00803178 0.0135566 0.0120606
68 1 0.0628903 0.437328 0.43708 -0.0319878 0.011963 0.00391929
69 1 0.998833 0.376036 0.501255 0.0338936 0.00726631 -0.0276835
70 1 0.0617 0.438429 0.563361 0.00879403 -0.0062098 0.00589905
71 1 0.999571 0.37528 0.625423 -0.00156994 0.000567719 0.00354266
72 1 0.0623358 0.437722 0.687673 -0.000489636 0.000812579 0.000883013
73 1 0.99982 0.375148 0.749955 -0.000158003 0.00101887 0.00126929
74 1 0.062406 0.437653 0.812369 0.000297085 0.00051064 -0.00199817
75 1 0.999454 0.375448 0.874429 0.00162206 0.0018151 0.00115944
76 1 0.062196 0.437837 0.937001 -0.000368453 0.000104827 0.000989126
77 1 0.999112 0.500886 0.999115 0.00737259 -0.00737269 0.00737245
78 1 0.0621616 0.563 0.0621988 -0.000104651 -0.000989223 -0.000368365
79 1 0.998788 0.501167 0.124007 -0.000427931 0.00765919 0.00419076
80 1 0.061702 0.563017 0.187235 0.00170549 0.0067961 -0.0118338
81 1 0.998675 0.500995 0.250004 0.0548847 -0.0319428 0.00339617
82 1 0.0620626 0.562675 0.312768 -0.0215641 0.0314774 0.0076297
83 1 0.998596 0.501298 0.375959 0.0567775 -0.0508909 0.00233317
84 1 0.0624988 0.562559 0.437623 -0.00458693 0.0225971 0.00187126
85 1 0.999912 0.50027 0.500076 -0.00494144 0.00326525 0.00469644
86 1 0.0623361 0.562767 0.562734 -0.00464298 -0.000275512 0.0005328
87 1 0.999626 0.500499 0.625425 0.00338828 -0.00208053 -0.000622946
88 1 0.0623976 0.562734 0.687607 0.000510555 -0.000197485 0.000335261
89 1 0.999832 0.500222 0.749991 -0.000377804 0.000720186 -0.000383802
90 1 0.0623105 0.562762 0.812259 -0.000708259 -0.000337931 0.000697268
91 1 0.999681 0.500321 0.874625 -0.000131822 -0.000145588 -0.00220819
92 1 0.0619541 0.56316 0.936817 0.0046033 -0.00379006 0.00203901
93 1 0.999677 0.625376 0.999684 0.0001457 0.00220813 -0.000131731
94 1 0.0623455 0.687632 0.0624088 -0.000510561 0.00199806 0.00029712
95 1 0.999606 0.625402 0.124755 -1.70336e-05 0.00110699 -0.00312676
96 1 0.062373 0.687585 0.187479 0.000834964 -0.00171046 -7.12949e-05
97 1 0.999694 0.625263 0.250062 -0.00106292 0.0020785 7.05898e-05
98 1 0.0624723 0.687506 0.312528 0.000131504 0.000261135 0.000940252
99 1 0.9998 0.625227 0.375191 0.000526528 -0.000907368 0.00162046
100 1 0.062574 0.687495 0.437453 -0.000373088 0.00110416 0.000206318
101 1 0.999989 0.625151 0.500071 4.58539e-05 0.00214924 0.000838432
102 1 0.0624593 0.68754 0.562541 -0.000739229 -0.000259804 -0.000616674
103 1 0.999876 0.625171 0.625079 -0.000946805 -0.00064181 -0.000191808
104 1 0.0624089 0.687547 0.687456 0.000407902 -0.000171349 7.43387e-05
105 1 0.999824 0.625202 0.749906 0.000423331 -0.000426205 0.000504973
106 1 0.062309 0.687664 0.81226 0.000874123 -0.000607837 0.000164685
107 1 0.99966 0.625363 0.87461 0.0017491 -0.00147763 0.000811133
108 1 0.0621989 0.687786 0.937155 2.90739e-05 -0.00144184 0.000734506
109 1 0.999776 0.75001 0.999835 -0.000720139 0.000383763 -0.00037776
110 1 0.0622762 0.812328 0.0623386 -0.000812514 -0.000882977 -0.00048958
111 1 0.99986 0.750038 0.124969 0.000163278 -0.000846637 -0.000470316
112 1 0.0624652 0.81245 0.187536 -0.00117594 -0.000229299 0.000272742
113 1 0.999941 0.750004 0.250044 -4.78195e-06 0.000371703 -0.000222164
114 1 0.0625126 0.812427 0.312561 0.00259273 0.00325433 -1.44308e-05
115 1 0.999986 0.749975 0.375051 0.00106488 0.000613536 0.00117317
116 1 0.0626179 0.81248 0.437389 -0.000922795 -0.00476686 0.00104658
117 1 5.67672e-05 0.749997 0.499948 -0.000644764 -0.00128351 0.000771549
118 1 0.0623738 0.812315 0.562565 0.000173815 0.00195955 -0.00193024
119 1 0.999904 0.74996 0.62499 0.000166053 0.000169631 -0.000523965
120 1 0.062362 0.812365 0.68745 0.000350594 -0.000254753 -0.000147392
121 1 0.999819 0.750007 0.749847 0.000776441 -0.00033308 -0.000203449
122 1 0.0622842 0.812374 0.812287 0.0010188 -0.000735178 -0.000592943
123 1 0.999721 0.750051 0.874727 0.000693807 -0.000867262 0.000299879
124 1 0.0622224 0.812327 0.937211 0.000274769 -0.00150253 -0.000726703
125 1 0.9995 0.874576 0.999629 0.0020804 0.000622692 0.00338812
126 1 0.0615693 0.93664 0.0617028 0.00620949 -0.00589961 0.00879369
127 1 0.999675 0.874678 0.124929 0.000161824 -0.000867388 0.000183685
128 1 0.0619308 0.936936 0.187569 0.0261343 0.0225223 -0.00124257
129 1 0.999757 0.874742 0.250097 -0.00222908 -0.00416725 -0.00354864
130 1 0.0618142 0.936844 0.313011 0.0596575 0.0633963 -0.0047142
131 1 0.999776 0.874703 0.375245 0.0061395 0.00833854 0.000466311
132 1 0.0627927 0.937641 0.437194 0.000611136 0.000330052 0.000951744
133 1 7.9339e-05 0.874961 0.499907 -0.00121941 -0.00190306 0.00112375
134 1 0.0623151 0.937219 0.562671 -0.000802012 -0.00211122 0.00343731
135 1 0.999888 0.874835 0.625012 -0.000198832 -0.000968906 0.00104015
136 1 0.0622721 0.937221 0.687586 0.000788858 0.000770143 -0.00191794
137 1 0.999766 0.874788 0.749865 0.000654525 -0.000227931 -0.000552085
138 1 0.0622082 0.937151 0.812212 0.000325599 -0.0010692 -0.00113795
139 1 0.999589 0.874698 0.87466 0.00012674 0.00136884 0.0019713
140 1 0.061836 0.936863 0.936887 -0.00161857 0.0044971 0.00548941
141 1 0.123963 0.998746 0.998836 -0.00726632 0.0276845 0.033895
142 1 0.185646 0.0602502 0.0608416 0.00865165 0.0286761 -0.0291602
143 1 0.123156 0.997974 0.123213 0.0179228 -0.0176644 0.0178957
144 1 0.18496 0.0521378 0.184989 -0.0553621 0.0685666 -0.0858868
145 1 0.123779 0.999373 0.251208 0.0426826 -0.0463153 -0.000272563
146 1 0.191987 0.0664341 0.307978 -0.205333 -0.183944 0.130537
147 1 0.126064 0.000988474 0.373812 -0.0363985 -0.0577327 0.0535026
148 1 0.186277 0.0610457 0.438837 0.00239395 -0.0115224 -0.038859
149 1 0.124538 0.999481 0.500421 -0.00651517 -0.0145059 0.0170387
150 1 0.186926 0.0614402 0.563306 -0.000168832 0.037404 -0.0264997
151 1 0.124659 0.999533 0.625396 0.000827748 0.00515711 -0.00624789
152 1 0.187387 0.0622708 0.687637 -0.000102087 0.000947995 -0.00169002
153 1 0.124847 0.999756 0.749965 -0.000518694 -0.000767094 -0.000790945
154 1 0.187378 0.0622439 0.81238 0.000863035 -0.00320519 -0.00473408
155 1 0.124641 0.999394 0.874458 0.000471935 -0.00127917 -0.00158149
156 1 0.187194 0.0612992 0.936648 -0.00883215 0.00390304 -0.0196444
157 1 0.12315 0.122904 0.997671 -0.0135566 -0.0120604 -0.00803178
158 1 0.18368 0.184043 0.0535757 -0.00288062 -0.0734795 0.0262279
159 1 0.129387 0.127746 0.127582 -0.0761771 0.01987 -0.0520041
160 1 0.120564 0.122521 0.249735 0.101931 0.137321 -0.0784497
161 1 0.185721 0.182733 0.311428 0.198136 0.117822 0.0212403
162 1 0.125063 0.124777 0.376001 -0.0252071 -0.108343 -0.0363159
163 1 0.190809 0.189732 0.433777 -0.14953 -0.00496479 0.193726
164 1 0.125711 0.125524 0.499693 -0.0164721 -0.00511635 0.0200284
165 1 0.187499 0.187263 0.562526 -0.0115663 -0.00829932 0.00123296
166 1 0.124974 0.124889 0.625051 -0.00502456 -0.0042533 0.022539
167 1 0.187484 0.187424 0.687475 -0.0016026 -0.00138389 -0.000335089
168 1 0.124906 0.1249 0.749983 -0.000193356 5.4246e-05 -0.000263597
169 1 0.187366 0.18738 0.812447 -0.000185755 0.000874542 0.00349009
170 1 0.124578 0.124592 0.874712 -0.0166678 -0.0171157 -0.0334345
171 1 0.186882 0.186839 0.936282 -0.00297914 -0.0151118 0.0402417
172 1 0.123822 0.251458 0.99768 -0.0379429 -0.0431653 0.115607
173 1 0.191932 0.312643 0.0651286 -0.0831076 0.0163141 -0.0454663
174 1 0.12053 0.251109 0.112736 0.0379692 0.124267 -0.0400483
175 1 0.18407 0.315928 0.184073 0.0200027 -0.0200058 0.0200092
176 1 0.11693 0.249546 0.380447 -0.083544 -0.0414005 -0.0686687
177 1 0.184986 0.315039 0.447863 -0.0858863 0.0553614 -0.0685644
178 1 0.123423 0.248554 0.50118 0.0464455 0.0216879 0.0022453
179 1 0.187141 0.312747 0.563884 -0.00876531 0.0031856 -0.167657
180 1 0.124765 0.24982 0.624931 -0.0185783 -0.0143114 0.0562359
181 1 0.187434 0.312501 0.687554 0.00115392 -0.00157131 -0.0086849
182 1 0.124942 0.250006 0.750004 -0.000204243 -0.000331587 0.000314864
183 1 0.18749 0.312512 0.812611 0.00136563 0.00212101 -0.00398634
184 1 0.124814 0.250213 0.875003 -0.0172079 0.0130545 -0.0379501
185 1 0.187769 0.312772 0.937882 0.016126 0.0210405 -0.0499579
186 1 0.125328 0.37518 0.999674 -0.0279922 -0.038533 0.0235283
187 1 0.185296 0.440055 0.0602498 0.037159 0.0263154 0.0852015
188 1 0.123218 0.37678 0.123221 0.036816 -0.0368181 0.0368194
189 1 0.187356 0.434873 0.191935 -0.0163091 0.0454565 -0.0830976
190 1 0.112733 0.379469 0.248892 -0.0400496 -0.0379696 -0.124267
191 1 0.188563 0.442197 0.311034 0.00457833 -0.0167448 0.0684679
192 1 0.127579 0.370612 0.372255 -0.052003 0.0761773 -0.0198694
193 1 0.18622 0.437267 0.437444 -0.0286605 0.0768631 0.0914298
194 1 0.12321 0.376842 0.502027 0.0178963 -0.0179233 0.0176657
195 1 0.187566 0.438068 0.563065 -0.00124271 -0.0261351 -0.0225234
196 1 0.124685 0.375302 0.625185 -0.0136572 0.0149107 0.0344557
197 1 0.187533 0.437533 0.687551 0.000272757 0.00117596 0.000229312
198 1 0.124963 0.375066 0.750016 0.000378138 -0.000138862 -0.000329034
199 1 0.187476 0.437625 0.812416 -7.12868e-05 -0.000834929 0.00171048
200 1 0.125022 0.375146 0.874983 -0.0025902 0.000910827 -0.0169102
201 1 0.187233 0.438296 0.936984 -0.0118338 -0.00170601 -0.00679537
202 1 0.124004 0.501211 0.998834 0.0041907 0.000428308 -0.00765921
203 1 0.186734 0.563471 0.0614343 -0.0131315 -0.0160985 0.0401936
204 1 0.124819 0.500327 0.12533 0.0385347 -0.0235296 -0.02799
205 1 0.187226 0.56212 0.187772 -0.0210402 0.049958 0.0161262
206 1 0.123173 0.500456 0.249743 0.0421689 0.0280432 -0.0196492
207 1 0.187603 0.562536 0.312151 -0.0115427 0.000282962 0.00128982
208 1 0.124962 0.499998 0.375073 -0.0130699 0.0145376 0.0249973
209 1 0.187264 0.562551 0.437713 -0.00189018 0.0264752 0.0124276
210 1 0.124756 0.500383 0.500516 -0.00622517 -0.0292479 -0.0318499
211 1 0.187536 0.562634 0.562652 0.001618 0.0010799 0.000777377
212 1 0.124927 0.500324 0.625323 0.000183676 -0.000161932 0.000867293
213 1 0.187519 0.562642 0.687597 -0.000136013 0.00026056 -0.000218794
214 1 0.124966 0.500138 0.749963 -0.000470326 -0.000163257 0.000846653
215 1 0.187466 0.562693 0.812321 -0.000332396 0.000478272 -0.000842884
216 1 0.124752 0.500392 0.874599 -0.00312678 1.70868e-05 -0.00110698
217 1 0.187257 0.563159 0.936848 0.000147853 -0.000352923 -0.000238384
218 1 0.124551 0.625573 0.999457 -0.00181505 -0.00115936 0.00162197
219 1 0.187347 0.687625 0.0623549 -0.00122036 -0.00013802 0.00201305
220 1 0.124853 0.625018 0.125025 -0.000910666 0.0169095 -0.00258998
221 1 0.187486 0.68739 0.187493 -0.00212099 0.00398638 0.00136565
222 1 0.124773 0.624936 0.249977 -0.000122928 0.0100864 -0.00421889
223 1 0.187573 0.687404 0.312382 0.000340101 -3.20679e-06 -0.000697274
224 1 0.125044 0.624878 0.374912 -0.00330669 0.0129842 0.00396519
225 1 0.187506 0.687448 0.437462 -0.000993495 0.000613781 -0.000275099
226 1 0.124944 0.625103 0.500111 0.000778261 -0.00210772 -0.00187651
227 1 0.187491 0.687485 0.562541 0.000383299 -0.000175507 -8.75738e-05
228 1 0.124979 0.625085 0.625061 -0.000227514 0.000587059 0.000632236
229 1 0.187476 0.687499 0.687481 1.11008e-05 -0.000125475 -0.000217244
230 1 0.124935 0.625143 0.749922 -7.0501e-05 0.000164305 -0.000155372
231 1 0.187432 0.687629 0.812291 0.000326319 -0.000421972 -0.000145706
232 1 0.124785 0.625366 0.874603 0.00116438 -0.00108737 0.000248644
233 1 0.187368 0.687744 0.937188 0.000574514 0.000926641 -0.00104324
234 1 0.12485 0.750046 0.999823 -0.00101882 -0.0012693 -0.000158004
235 1 0.187458 0.812422 0.0623886 0.00063612 -0.000653634 -0.00126565
236 1 0.124933 0.749985 0.124966 0.000138879 0.000329015 0.000378166
237 1 0.187498 0.812447 0.187437 0.00157126 0.00868493 0.00115391
238 1 0.125028 0.749998 0.249996 0.000370963 -0.00135445 0.000474137
239 1 0.187643 0.812568 0.312421 -0.00149025 0.000563739 0.000607471
240 1 0.125112 0.749969 0.374908 -0.000341805 -0.00028306 -0.000136899
241 1 0.187483 0.812389 0.437527 -0.000514757 0.00127787 -0.00237038
242 1 0.12499 0.749919 0.499999 -0.00110592 0.000290195 -0.00129857
243 1 0.187423 0.812279 0.562622 0.00120815 -0.00111229 0.000538884
244 1 0.124934 0.749913 0.625014 0.000563738 -0.000540457 0.0003336
245 1 0.187418 0.812323 0.687511 0.000393912 -0.00027413 -0.000561268
246 1 0.12489 0.749972 0.749876 0.00052722 -0.000288274 -0.000335706
247 1 0.187415 0.812362 0.812325 0.000554531 -0.000788426 -0.000724244
248 1 0.124837 0.750034 0.874743 0.000521599 -0.000306415 -0.000684746
249 1 0.187401 0.812322 0.937233 0.000330726 -0.000553535 -0.00102571
250 1 0.124718 0.874579 0.999574 -0.000567739 -0.00354274 -0.00156998
251 1 0.187441 0.93675 0.061705 -0.00847435 0.0100942 0.0145614
252 1 0.124696 0.874816 0.124688 -0.0149106 -0.0344558 -0.0136571
253 1 0.187251 0.936117 0.187143 -0.00318574 0.167655 -0.00876525
254 1 0.12493 0.87516 0.250127 -0.0176482 -0.0560453 0.0150259
255 1 0.187827 0.937771 0.312294 -0.0175134 -0.00775063 0.00117047
256 1 0.125214 0.875173 0.374856 -0.0061283 -0.0266435 0.00582335
257 1 0.187009 0.93682 0.438321 -0.00838168 0.0375027 -0.0548567
258 1 0.124738 0.874621 0.500266 -0.000844505 0.00832283 -0.00810513
259 1 0.187357 0.937108 0.562809 -0.00231424 -0.00387127 0.00368871
260 1 0.124858 0.874751 0.62511 -2.64339e-06 -0.000568689 7.22184e-05
261 1 0.187381 0.93719 0.687644 0.00133536 -0.000945529 0.000345649
262 1 0.124851 0.874766 0.749913 0.00081249 -0.00112759 -0.000209126
263 1 0.187415 0.937172 0.81228 4.20014e-05 -0.00170723 -0.000961997
264 1 0.124778 0.87469 0.874682 0.00114034 -0.00145574 -0.00136741
265 1 0.18734 0.936915 0.936967 0.00188471 -0.003921 -0.00463847
266 1 0.250106 0.998999 0.999143 0.000987641 0.0221182 0.0125549
267 1 0.314136 0.0610306 0.0609182 0.00235896 -0.0364616 -0.00271113
268 1 0.251444 0.998821 0.123426 -0.0216874 -0.00224492 0.0464449
269 1 0.310267 0.0662242 0.190812 0.00496717 -0.193729 -0.149529
270 1 0.250688 0.999427 0.249719 -0.0110675 -0.225602 -0.010591
271 1 0.315794 0.0521585 0.315218 0.042328 0.0311244 0.06076
272 1 0.249107 0.998591 0.376405 0.016013 0.0209508 -0.0269947
273 1 0.315039 0.0612114 0.438631 -0.00201245 -0.0772181 0.0785162
274 1 0.25022 0.999274 0.50062 -0.00106641 0.0216241 -0.0161469
275 1 0.312706 0.061417 0.563269 0.00612004 0.0171139 0.00933862
276 1 0.249946 0.999471 0.625437 0.00237533 -0.000516383 0.00100109
277 1 0.312558 0.0622642 0.687636 -0.000630074 -0.00186482 0.0018954
278 1 0.249982 0.999768 0.750002 0.000682131 -0.000716717 -0.000409876
279 1 0.31257 0.0622739 0.812389 0.00189784 -0.000802021 -0.00275108
280 1 0.25008 0.999478 0.874568 -0.000464014 -0.000925725 -0.000562736
281 1 0.31308 0.0616025 0.936838 0.00847588 -0.00291207 -0.0255858
282 1 0.250541 0.122859 0.997907 0.00797774 0.0541236 0.0742489
283 1 0.312563 0.188102 0.0623229 -0.0889346 -0.0920762 -0.105142
284 1 0.250453 0.119554 0.116933 0.0413952 0.0686729 -0.0835378
285 1 0.317266 0.188574 0.185724 -0.117821 -0.02124 0.198137
286 1 0.250281 0.117573 0.381046 -0.0286261 0.0565568 -0.0267935
287 1 0.315215 0.184204 0.447843 0.0607579 -0.0423264 -0.0311245
288 1 0.248981 0.122994 0.501456 0.0165159 0.0457236 -0.0111268
289 1 0.312875 0.186891 0.564013 0.00201084 -0.0090438 -0.142538
290 1 0.249913 0.124567 0.625028 -0.0146303 -0.0173102 0.0506094
291 1 0.312534 0.187338 0.687605 -0.00105914 0.00135267 -0.00956
292 1 0.249958 0.124851 0.750005 -4.66423e-05 -0.000721863 0.000644929
293 1 0.312423 0.187409 0.812564 0.00190785 1.25186e-06 -0.00202453
294 1 0.249971 0.124574 0.874858 0.0165271 -0.0136447 -0.0286965
295 1 0.312552 0.187201 0.937377 0.01006 -0.000122276 -0.0312841
296 1 0.249145 0.248519 0.999619 -0.0075044 0.0438867 0.00279955
297 1 0.311031 0.311435 0.0578043 0.0684647 -0.00458093 0.0167482
298 1 0.250069 0.249929 0.250072 -0.0621432 0.0621468 -0.0621487
299 1 0.311425 0.314277 0.317268 0.0212391 -0.198136 -0.117821
300 1 0.307975 0.308011 0.433567 0.130537 0.205334 0.183942
301 1 0.249716 0.249311 0.500574 -0.0105914 0.0110675 0.225602
302 1 0.312291 0.312172 0.56223 0.00117032 0.0175134 0.00775094
303 1 0.249957 0.249834 0.624817 -0.000274522 0.000580989 0.0786073
304 1 0.312418 0.312356 0.687433 0.000607459 0.00149023 -0.000563716
305 1 0.249934 0.249922 0.750024 8.70377e-05 0.000283918 0.000185754
306 1 0.312379 0.312425 0.812597 -0.000697257 -0.000340133 3.22639e-06
307 1 0.249829 0.249851 0.875199 0.00570919 0.00588327 -0.0414575
308 1 0.312148 0.312396 0.937465 0.00128979 0.0115428 -0.00028314
309 1 0.24974 0.376825 0.999545 -0.0196491 -0.0421701 -0.0280434
310 1 0.314854 0.439562 0.0605237 -0.047835 0.00765809 0.0697986
311 1 0.24889 0.387265 0.120532 -0.124268 0.040046 0.0379681
312 1 0.315955 0.446425 0.183683 0.0734836 -0.0262284 -0.00287844
313 1 0.311897 0.437678 0.312566 0.0920769 0.105142 -0.0889353
314 1 0.249732 0.379435 0.37748 -0.0784496 -0.10193 -0.137325
315 1 0.313445 0.438083 0.437899 -0.00333238 -0.0427067 0.0028664
316 1 0.251206 0.376219 0.500628 -0.000273024 -0.0426827 0.0463157
317 1 0.313008 0.438184 0.563158 -0.00471419 -0.0596574 -0.063396
318 1 0.250124 0.375069 0.624841 0.0150259 0.0176481 0.0560453
319 1 0.312558 0.437486 0.687574 -1.43968e-05 -0.00259277 -0.00325432
320 1 0.249993 0.37497 0.750003 0.000474153 -0.000370969 0.00135446
321 1 0.312526 0.437526 0.812495 0.000940326 -0.000131484 -0.000261142
322 1 0.249974 0.375225 0.875065 -0.00421887 0.000123081 -0.0100869
323 1 0.312765 0.437936 0.937326 0.00762978 0.0215644 -0.0314779
324 1 0.250001 0.501323 0.999006 0.0033962 -0.0548847 0.0319431
325 1 0.312588 0.563186 0.0616509 0.0163675 0.0261627 0.00976896
326 1 0.24854 0.502321 0.123825 0.0431633 -0.11561 -0.0379423
327 1 0.313159 0.563719 0.186884 0.0151119 -0.0402389 -0.00297906
328 1 0.25148 0.500382 0.249148 -0.0438849 -0.00279211 -0.00750459
329 1 0.312798 0.562624 0.312555 0.000121963 0.0312839 0.0100601
330 1 0.250326 0.501203 0.376159 0.0110977 -0.056152 -0.0588831
331 1 0.31285 0.562896 0.437953 -0.00226073 0.00406706 0.00201957
332 1 0.249896 0.499951 0.500043 -0.00141861 0.0100474 -0.0050482
333 1 0.312543 0.562561 0.562575 0.00106045 0.00213034 0.00128398
334 1 0.250094 0.500241 0.625259 -0.00354873 0.00222904 0.00416719
335 1 0.312583 0.562589 0.687596 -0.00153768 0.000910337 0.00077791
336 1 0.250041 0.500057 0.749997 -0.000222106 4.79702e-06 -0.000371694
337 1 0.312581 0.562646 0.812353 -0.000551955 0.00045566 -0.00029983
338 1 0.250059 0.500305 0.874738 7.0708e-05 0.00106299 -0.00207856
339 1 0.312647 0.563135 0.936865 -0.00293955 0.00343293 -0.00165803
340 1 0.249913 0.625499 0.999535 0.00263554 0.00162698 -0.00337272
341 1 0.312497 0.687571 0.0623725 0.000435966 0.00514878 -0.00157825
342 1 0.249786 0.624998 0.124817 -0.0130545 0.037949 -0.0172076
343 1 0.312618 0.687554 0.187368 -0.000874588 -0.00348989 -0.00018571
344 1 0.250147 0.624803 0.249832 -0.00588308 0.041457 0.00570897
345 1 0.31259 0.687437 0.312426 -1.30676e-06 0.00202457 0.00190781
346 1 0.250026 0.62497 0.37502 0.00385009 0.00630147 0.00296625
347 1 0.312538 0.687508 0.437544 5.8332e-05 0.000124666 0.000652049
348 1 0.249968 0.62503 0.500067 -3.68171e-05 0.0023127 0.000886014
349 1 0.312504 0.68746 0.562573 7.67599e-05 0.0011101 0.000428723
350 1 0.250038 0.625039 0.625067 0.000176694 -0.000707381 -0.000717138
351 1 0.312536 0.687468 0.687515 0.000330362 -0.000272332 -0.000319904
352 1 0.250024 0.62509 0.749948 -6.24118e-06 0.0001004 -0.000310535
353 1 0.31255 0.687599 0.81232 0.000106277 -0.000351145 -0.000390805
354 1 0.249978 0.625324 0.874646 9.56733e-05 -0.000599299 -0.000103101
355 1 0.312542 0.687723 0.937203 0.000592262 0.000644705 -0.000901267
356 1 0.249971 0.750012 0.999847 0.000482987 -0.000287719 -0.00012284
357 1 0.312591 0.812373 0.062371 0.000916829 0.00210566 0.00127718
358 1 0.249992 0.749997 0.124945 0.000331565 -0.000314892 -0.0002042
359 1 0.312575 0.812526 0.187487 0.00138382 0.000335149 -0.00160257
360 1 0.250077 0.749978 0.249937 -0.000283962 -0.000185726 8.70382e-05
361 1 0.31266 0.812396 0.312536 -0.00135274 0.00956015 -0.00105909
362 1 0.250051 0.749967 0.374963 -0.000625341 -0.00148322 -0.000263526
363 1 0.312565 0.812373 0.437604 -0.000897499 -0.00222522 0.00150904
364 1 0.249994 0.749903 0.500035 0.000108155 0.000241518 -0.000251702
365 1 0.312528 0.812222 0.562718 1.7761e-05 4.694e-05 0.000107597
366 1 0.249981 0.749875 0.625063 0.00022695 -0.000198321 -0.000115817
367 1 0.312524 0.812296 0.687568 0.000469965 -0.000555428 -0.000613561
368 1 0.249985 0.749945 0.749914 0.000458401 -0.000488499 -0.000459323
369 1 0.312554 0.812353 0.812356 0.000475827 -0.000731547 -0.000532513
370 1 0.249979 0.750016 0.874773 0.000427864 -0.000518727 -0.000721414
371 1 0.312593 0.812316 0.937245 -0.000241909 -0.0011872 -0.000920485
372 1 0.250068 0.874564 0.99957 -0.00189614 -0.00301943 -0.00255432
373 1 0.313147 0.936662 0.0615781 0.00815525 0.0295332 0.0457028
374 1 0.250178 0.87507 0.124768 0.0143112 -0.0562358 -0.0185783
375 1 0.312735 0.937475 0.187502 0.00829939 -0.00123272 -0.0115661
376 1 0.250164 0.875184 0.24996 -0.000581123 -0.0786068 -0.000274512
377 1 0.313107 0.935988 0.312878 0.00904368 0.142538 0.00201091
378 1 0.250005 0.875059 0.375207 -0.0152133 -0.0513679 0.0177737
379 1 0.312704 0.93684 0.438365 0.010133 -0.0182352 -0.0125024
380 1 0.249967 0.874587 0.500355 0.00323303 -0.00233247 0.00143018
381 1 0.312603 0.936871 0.56307 -0.00279457 -0.00272919 0.0021004
382 1 0.249932 0.874673 0.62522 0.000381096 4.03799e-06 -0.00091881
383 1 0.312555 0.93715 0.687714 8.98339e-05 -0.00083474 -0.000585947
384 1 0.249978 0.874753 0.749965 0.000365363 -0.000828621 -0.000610938
385 1 0.312606 0.93719 0.812318 6.42945e-05 -0.00106321 -0.000957826
386 1 0.250012 0.874701 0.874718 0.000750178 -0.00124109 -0.000651981
387 1 0.312738 0.936988 0.937028 0.00290741 -0.0051008 -0.00423377
388 1 0.375683 0.999198 0.999351 0.00132234 -0.00119116 -0.0118747
389 1 0.438055 0.0617705 0.0618878 -0.0277735 0.0616484 0.0880728
390 1 0.374474 0.000307626 0.125714 0.00511637 -0.0200282 -0.0164726
391 1 0.438953 0.0611645 0.18628 0.0115215 0.0388593 0.00239387
392 1 0.377004 0.998545 0.248984 -0.0457233 0.0111264 0.0165159
393 1 0.438787 0.0613703 0.315041 0.077218 -0.0785159 -0.0020118
394 1 0.37709 0.997558 0.376944 -0.015845 0.0555074 -0.0139511
395 1 0.437012 0.0629863 0.437015 0.074467 -0.0744673 0.0744678
396 1 0.375995 0.998572 0.501392 0.00643291 0.0700677 -0.0726083
397 1 0.438522 0.0614446 0.563523 -0.00627625 0.00632107 0.0149832
398 1 0.375308 0.999402 0.625563 -0.000900764 0.000563076 -0.00189799
399 1 0.437764 0.0622253 0.687789 0.000913167 -0.000873513 0.00252496
400 1 0.375124 0.999768 0.750041 0.00104202 -0.0006051 3.50086e-05
401 1 0.437648 0.0623621 0.812441 0.000519885 -0.000503306 -0.0018854
402 1 0.375336 0.999576 0.874622 0.000225771 0.00104616 0.00057979
403 1 0.437783 0.062249 0.937223 0.000976576 -0.000204599 -0.00445254
404 1 0.375284 0.124781 0.999597 -0.0179446 0.00343508 -0.00397766
405 1 0.437896 0.186554 0.0619177 0.00286681 0.00333223 0.0427064
406 1 0.375221 0.124 0.125065 0.108343 0.0363165 -0.0252078
407 1 0.433564 0.192023 0.19199 0.183942 -0.130536 -0.205333
408 1 0.382425 0.118955 0.250284 -0.0565565 0.0267936 -0.0286251
409 1 0.44784 0.184783 0.315797 -0.0311241 -0.0607606 0.0423292
410 1 0.370353 0.129645 0.370356 0.251694 -0.251695 0.251696
411 1 0.438628 0.18496 0.43879 0.0785158 0.00201223 0.0772185
412 1 0.376942 0.122908 0.502443 -0.0139516 0.0158452 -0.0555078
413 1 0.438362 0.187294 0.563161 -0.0125027 -0.010133 0.0182349
414 1 0.375401 0.124529 0.625316 0.0152095 -0.0149339 0.030339
415 1 0.437602 0.187434 0.687629 0.00150903 0.000897446 0.00222519
416 1 0.375062 0.124883 0.750051 0.000192897 -1.61719e-05 0.000968848
417 1 0.437541 0.187461 0.812493 0.000652042 -5.83929e-05 -0.000124671
418 1 0.375103 0.12483 0.874839 0.00114729 -0.000205927 -0.00344499
419 1 0.43795 0.187148 0.937105 0.00201933 0.00226081 -0.0040667
420 1 0.376156 0.249672 0.998798 -0.0588821 -0.0110973 0.0561517
421 1 0.437442 0.313779 0.0627337 0.0914299 0.0286606 -0.0768641
422 1 0.377477 0.250266 0.120566 -0.137321 0.0784514 0.101934
423 1 0.44786 0.315012 0.184963 -0.068567 0.0858859 -0.0553629
424 1 0.433774 0.309189 0.310269 0.193729 0.149529 0.00496756
425 1 0.381044 0.249717 0.382428 -0.026793 0.0286255 -0.0565561
426 1 0.438834 0.313721 0.438955 -0.0388584 -0.00239385 0.0115215
427 1 0.376402 0.250891 0.50141 -0.0269955 -0.016013 -0.0209508
428 1 0.438318 0.31299 0.563182 -0.0548564 0.00838155 -0.0375025
429 1 0.375204 0.249994 0.624942 0.0177735 0.0152133 0.0513678
430 1 0.437524 0.312515 0.687612 -0.00237042 0.000514745 -0.00127791
431 1 0.37496 0.249947 0.750034 -0.000263533 0.000625282 0.00148318
432 1 0.437459 0.312492 0.812553 -0.000275079 0.000993446 -0.000613801
433 1 0.375017 0.249972 0.875032 0.00296631 -0.00385017 -0.00630169
434 1 0.43771 0.312734 0.93745 0.0124279 0.00189014 -0.0264757
435 1 0.37507 0.375036 3.1433e-06 0.0249977 0.0130701 -0.0145365
436 1 0.437078 0.437108 0.0626727 0.00392221 0.0319906 -0.0119657
437 1 0.372253 0.37242 0.129389 -0.0198636 0.0520058 -0.0761827
438 1 0.439748 0.439159 0.185649 -0.0286785 0.0291597 0.00865109
439 1 0.380444 0.383068 0.250455 -0.0686742 0.0835387 0.0413949
440 1 0.438968 0.439083 0.314138 0.0364624 0.00271204 0.00235968
441 1 0.375998 0.374936 0.375224 -0.0363168 0.0252068 0.108342
442 1 0.438228 0.438113 0.438057 -0.0616478 -0.0880726 -0.0277736
443 1 0.373809 0.373934 0.499013 0.0535016 0.0363979 0.0577323
444 1 0.437192 0.437206 0.56236 0.000951696 -0.000611145 -0.000329997
445 1 0.374853 0.374784 0.624828 0.00582329 0.0061283 0.0266434
446 1 0.437387 0.43738 0.687521 0.00104663 0.000922776 0.0047668